# vtk DataFile Version 4.1
vtk output
ASCII
DATASET STRUCTURED_GRID
DIMENSIONS 101 21 1
POINTS 2121 float
0 0 0 0.1 0 0 0.2 0 0 
0.3 0 0 0.4 0 0 0.5 0 0 
0.6 0 0 0.7 0 0 0.8 0 0 
0.9 0 0 1 0 0 1.1 0 0 
1.2 0 0 1.3 0 0 1.4 0 0 
1.5 0 0 1.6 0 0 1.7 0 0 
1.8 0 0 1.9 0 0 2 0 0 
2.1 0 0 2.2 0 0 2.3 0 0 
2.4 0 0 2.5 0 0 2.6 0 0 
2.7 0 0 2.8 0 0 2.9 0 0 
3 0 0 3.1 0 0 3.2 0 0 
3.3 0 0 3.4 0 0 3.5 0 0 
3.6 0 0 3.7 0 0 3.8 0 0 
3.9 0 0 4 0 0 4.1 0 0 
4.2 0 0 4.3 0 0 4.4 0 0 
4.5 0 0 4.6 0 0 4.7 0 0 
4.8 0 0 4.9 0 0 5 0 0 
5.1 0 0 5.2 0 0 5.3 0 0 
5.4 0 0 5.5 0 0 5.6 0 0 
5.7 0 0 5.8 0 0 5.9 0 0 
6 0 0 6.1 0 0 6.2 0 0 
6.3 0 0 6.4 0 0 6.5 0 0 
6.6 0 0 6.7 0 0 6.8 0 0 
6.9 0 0 7 0 0 7.1 0 0 
7.2 0 0 7.3 0 0 7.4 0 0 
7.5 0 0 7.6 0 0 7.7 0 0 
7.8 0 0 7.9 0 0 8 0 0 
8.1 0 0 8.2 0 0 8.3 0 0 
8.4 0 0 8.5 0 0 8.6 0 0 
8.7 0 0 8.8 0 0 8.9 0 0 
9 0 0 9.1 0 0 9.2 0 0 
9.3 0 0 9.4 0 0 9.5 0 0 
9.6 0 0 9.7 0 0 9.8 0 0 
9.9 0 0 10 0 0 0 0.1 0 
0.1 0.1 0 0.2 0.1 0 0.3 0.1 0 
0.4 0.1 0 0.5 0.1 0 0.6 0.1 0 
0.7 0.1 0 0.8 0.1 0 0.9 0.1 0 
1 0.1 0 1.1 0.1 0 1.2 0.1 0 
1.3 0.1 0 1.4 0.1 0 1.5 0.1 0 
1.6 0.1 0 1.7 0.1 0 1.8 0.1 0 
1.9 0.1 0 2 0.1 0 2.1 0.1 0 
2.2 0.1 0 2.3 0.1 0 2.4 0.1 0 
2.5 0.1 0 2.6 0.1 0 2.7 0.1 0 
2.8 0.1 0 2.9 0.1 0 3 0.1 0 
3.1 0.1 0 3.2 0.1 0 3.3 0.1 0 
3.4 0.1 0 3.5 0.1 0 3.6 0.1 0 
3.7 0.1 0 3.8 0.1 0 3.9 0.1 0 
4 0.1 0 4.1 0.1 0 4.2 0.1 0 
4.3 0.1 0 4.4 0.1 0 4.5 0.1 0 
4.6 0.1 0 4.7 0.1 0 4.8 0.1 0 
4.9 0.1 0 5 0.1 0 5.1 0.1 0 
5.2 0.1 0 5.3 0.1 0 5.4 0.1 0 
5.5 0.1 0 5.6 0.1 0 5.7 0.1 0 
5.8 0.1 0 5.9 0.1 0 6 0.1 0 
6.1 0.1 0 6.2 0.1 0 6.3 0.1 0 
6.4 0.1 0 6.5 0.1 0 6.6 0.1 0 
6.7 0.1 0 6.8 0.1 0 6.9 0.1 0 
7 0.1 0 7.1 0.1 0 7.2 0.1 0 
7.3 0.1 0 7.4 0.1 0 7.5 0.1 0 
7.6 0.1 0 7.7 0.1 0 7.8 0.1 0 
7.9 0.1 0 8 0.1 0 8.1 0.1 0 
8.2 0.1 0 8.3 0.1 0 8.4 0.1 0 
8.5 0.1 0 8.6 0.1 0 8.7 0.1 0 
8.8 0.1 0 8.9 0.1 0 9 0.1 0 
9.1 0.1 0 9.2 0.1 0 9.3 0.1 0 
9.4 0.1 0 9.5 0.1 0 9.6 0.1 0 
9.7 0.1 0 9.8 0.1 0 9.9 0.1 0 
10 0.1 0 0 0.2 0 0.1 0.2 0 
0.2 0.2 0 0.3 0.2 0 0.4 0.2 0 
0.5 0.2 0 0.6 0.2 0 0.7 0.2 0 
0.8 0.2 0 0.9 0.2 0 1 0.2 0 
1.1 0.2 0 1.2 0.2 0 1.3 0.2 0 
1.4 0.2 0 1.5 0.2 0 1.6 0.2 0 
1.7 0.2 0 1.8 0.2 0 1.9 0.2 0 
2 0.2 0 2.1 0.2 0 2.2 0.2 0 
2.3 0.2 0 2.4 0.2 0 2.5 0.2 0 
2.6 0.2 0 2.7 0.2 0 2.8 0.2 0 
2.9 0.2 0 3 0.2 0 3.1 0.2 0 
3.2 0.2 0 3.3 0.2 0 3.4 0.2 0 
3.5 0.2 0 3.6 0.2 0 3.7 0.2 0 
3.8 0.2 0 3.9 0.2 0 4 0.2 0 
4.1 0.2 0 4.2 0.2 0 4.3 0.2 0 
4.4 0.2 0 4.5 0.2 0 4.6 0.2 0 
4.7 0.2 0 4.8 0.2 0 4.9 0.2 0 
5 0.2 0 5.1 0.2 0 5.2 0.2 0 
5.3 0.2 0 5.4 0.2 0 5.5 0.2 0 
5.6 0.2 0 5.7 0.2 0 5.8 0.2 0 
5.9 0.2 0 6 0.2 0 6.1 0.2 0 
6.2 0.2 0 6.3 0.2 0 6.4 0.2 0 
6.5 0.2 0 6.6 0.2 0 6.7 0.2 0 
6.8 0.2 0 6.9 0.2 0 7 0.2 0 
7.1 0.2 0 7.2 0.2 0 7.3 0.2 0 
7.4 0.2 0 7.5 0.2 0 7.6 0.2 0 
7.7 0.2 0 7.8 0.2 0 7.9 0.2 0 
8 0.2 0 8.1 0.2 0 8.2 0.2 0 
8.3 0.2 0 8.4 0.2 0 8.5 0.2 0 
8.6 0.2 0 8.7 0.2 0 8.8 0.2 0 
8.9 0.2 0 9 0.2 0 9.1 0.2 0 
9.2 0.2 0 9.3 0.2 0 9.4 0.2 0 
9.5 0.2 0 9.6 0.2 0 9.7 0.2 0 
9.8 0.2 0 9.9 0.2 0 10 0.2 0 
0 0.3 0 0.1 0.3 0 0.2 0.3 0 
0.3 0.3 0 0.4 0.3 0 0.5 0.3 0 
0.6 0.3 0 0.7 0.3 0 0.8 0.3 0 
0.9 0.3 0 1 0.3 0 1.1 0.3 0 
1.2 0.3 0 1.3 0.3 0 1.4 0.3 0 
1.5 0.3 0 1.6 0.3 0 1.7 0.3 0 
1.8 0.3 0 1.9 0.3 0 2 0.3 0 
2.1 0.3 0 2.2 0.3 0 2.3 0.3 0 
2.4 0.3 0 2.5 0.3 0 2.6 0.3 0 
2.7 0.3 0 2.8 0.3 0 2.9 0.3 0 
3 0.3 0 3.1 0.3 0 3.2 0.3 0 
3.3 0.3 0 3.4 0.3 0 3.5 0.3 0 
3.6 0.3 0 3.7 0.3 0 3.8 0.3 0 
3.9 0.3 0 4 0.3 0 4.1 0.3 0 
4.2 0.3 0 4.3 0.3 0 4.4 0.3 0 
4.5 0.3 0 4.6 0.3 0 4.7 0.3 0 
4.8 0.3 0 4.9 0.3 0 5 0.3 0 
5.1 0.3 0 5.2 0.3 0 5.3 0.3 0 
5.4 0.3 0 5.5 0.3 0 5.6 0.3 0 
5.7 0.3 0 5.8 0.3 0 5.9 0.3 0 
6 0.3 0 6.1 0.3 0 6.2 0.3 0 
6.3 0.3 0 6.4 0.3 0 6.5 0.3 0 
6.6 0.3 0 6.7 0.3 0 6.8 0.3 0 
6.9 0.3 0 7 0.3 0 7.1 0.3 0 
7.2 0.3 0 7.3 0.3 0 7.4 0.3 0 
7.5 0.3 0 7.6 0.3 0 7.7 0.3 0 
7.8 0.3 0 7.9 0.3 0 8 0.3 0 
8.1 0.3 0 8.2 0.3 0 8.3 0.3 0 
8.4 0.3 0 8.5 0.3 0 8.6 0.3 0 
8.7 0.3 0 8.8 0.3 0 8.9 0.3 0 
9 0.3 0 9.1 0.3 0 9.2 0.3 0 
9.3 0.3 0 9.4 0.3 0 9.5 0.3 0 
9.6 0.3 0 9.7 0.3 0 9.8 0.3 0 
9.9 0.3 0 10 0.3 0 0 0.4 0 
0.1 0.4 0 0.2 0.4 0 0.3 0.4 0 
0.4 0.4 0 0.5 0.4 0 0.6 0.4 0 
0.7 0.4 0 0.8 0.4 0 0.9 0.4 0 
1 0.4 0 1.1 0.4 0 1.2 0.4 0 
1.3 0.4 0 1.4 0.4 0 1.5 0.4 0 
1.6 0.4 0 1.7 0.4 0 1.8 0.4 0 
1.9 0.4 0 2 0.4 0 2.1 0.4 0 
2.2 0.4 0 2.3 0.4 0 2.4 0.4 0 
2.5 0.4 0 2.6 0.4 0 2.7 0.4 0 
2.8 0.4 0 2.9 0.4 0 3 0.4 0 
3.1 0.4 0 3.2 0.4 0 3.3 0.4 0 
3.4 0.4 0 3.5 0.4 0 3.6 0.4 0 
3.7 0.4 0 3.8 0.4 0 3.9 0.4 0 
4 0.4 0 4.1 0.4 0 4.2 0.4 0 
4.3 0.4 0 4.4 0.4 0 4.5 0.4 0 
4.6 0.4 0 4.7 0.4 0 4.8 0.4 0 
4.9 0.4 0 5 0.4 0 5.1 0.4 0 
5.2 0.4 0 5.3 0.4 0 5.4 0.4 0 
5.5 0.4 0 5.6 0.4 0 5.7 0.4 0 
5.8 0.4 0 5.9 0.4 0 6 0.4 0 
6.1 0.4 0 6.2 0.4 0 6.3 0.4 0 
6.4 0.4 0 6.5 0.4 0 6.6 0.4 0 
6.7 0.4 0 6.8 0.4 0 6.9 0.4 0 
7 0.4 0 7.1 0.4 0 7.2 0.4 0 
7.3 0.4 0 7.4 0.4 0 7.5 0.4 0 
7.6 0.4 0 7.7 0.4 0 7.8 0.4 0 
7.9 0.4 0 8 0.4 0 8.1 0.4 0 
8.2 0.4 0 8.3 0.4 0 8.4 0.4 0 
8.5 0.4 0 8.6 0.4 0 8.7 0.4 0 
8.8 0.4 0 8.9 0.4 0 9 0.4 0 
9.1 0.4 0 9.2 0.4 0 9.3 0.4 0 
9.4 0.4 0 9.5 0.4 0 9.6 0.4 0 
9.7 0.4 0 9.8 0.4 0 9.9 0.4 0 
10 0.4 0 0 0.5 0 0.1 0.5 0 
0.2 0.5 0 0.3 0.5 0 0.4 0.5 0 
0.5 0.5 0 0.6 0.5 0 0.7 0.5 0 
0.8 0.5 0 0.9 0.5 0 1 0.5 0 
1.1 0.5 0 1.2 0.5 0 1.3 0.5 0 
1.4 0.5 0 1.5 0.5 0 1.6 0.5 0 
1.7 0.5 0 1.8 0.5 0 1.9 0.5 0 
2 0.5 0 2.1 0.5 0 2.2 0.5 0 
2.3 0.5 0 2.4 0.5 0 2.5 0.5 0 
2.6 0.5 0 2.7 0.5 0 2.8 0.5 0 
2.9 0.5 0 3 0.5 0 3.1 0.5 0 
3.2 0.5 0 3.3 0.5 0 3.4 0.5 0 
3.5 0.5 0 3.6 0.5 0 3.7 0.5 0 
3.8 0.5 0 3.9 0.5 0 4 0.5 0 
4.1 0.5 0 4.2 0.5 0 4.3 0.5 0 
4.4 0.5 0 4.5 0.5 0 4.6 0.5 0 
4.7 0.5 0 4.8 0.5 0 4.9 0.5 0 
5 0.5 0 5.1 0.5 0 5.2 0.5 0 
5.3 0.5 0 5.4 0.5 0 5.5 0.5 0 
5.6 0.5 0 5.7 0.5 0 5.8 0.5 0 
5.9 0.5 0 6 0.5 0 6.1 0.5 0 
6.2 0.5 0 6.3 0.5 0 6.4 0.5 0 
6.5 0.5 0 6.6 0.5 0 6.7 0.5 0 
6.8 0.5 0 6.9 0.5 0 7 0.5 0 
7.1 0.5 0 7.2 0.5 0 7.3 0.5 0 
7.4 0.5 0 7.5 0.5 0 7.6 0.5 0 
7.7 0.5 0 7.8 0.5 0 7.9 0.5 0 
8 0.5 0 8.1 0.5 0 8.2 0.5 0 
8.3 0.5 0 8.4 0.5 0 8.5 0.5 0 
8.6 0.5 0 8.7 0.5 0 8.8 0.5 0 
8.9 0.5 0 9 0.5 0 9.1 0.5 0 
9.2 0.5 0 9.3 0.5 0 9.4 0.5 0 
9.5 0.5 0 9.6 0.5 0 9.7 0.5 0 
9.8 0.5 0 9.9 0.5 0 10 0.5 0 
0 0.6 0 0.1 0.6 0 0.2 0.6 0 
0.3 0.6 0 0.4 0.6 0 0.5 0.6 0 
0.6 0.6 0 0.7 0.6 0 0.8 0.6 0 
0.9 0.6 0 1 0.6 0 1.1 0.6 0 
1.2 0.6 0 1.3 0.6 0 1.4 0.6 0 
1.5 0.6 0 1.6 0.6 0 1.7 0.6 0 
1.8 0.6 0 1.9 0.6 0 2 0.6 0 
2.1 0.6 0 2.2 0.6 0 2.3 0.6 0 
2.4 0.6 0 2.5 0.6 0 2.6 0.6 0 
2.7 0.6 0 2.8 0.6 0 2.9 0.6 0 
3 0.6 0 3.1 0.6 0 3.2 0.6 0 
3.3 0.6 0 3.4 0.6 0 3.5 0.6 0 
3.6 0.6 0 3.7 0.6 0 3.8 0.6 0 
3.9 0.6 0 4 0.6 0 4.1 0.6 0 
4.2 0.6 0 4.3 0.6 0 4.4 0.6 0 
4.5 0.6 0 4.6 0.6 0 4.7 0.6 0 
4.8 0.6 0 4.9 0.6 0 5 0.6 0 
5.1 0.6 0 5.2 0.6 0 5.3 0.6 0 
5.4 0.6 0 5.5 0.6 0 5.6 0.6 0 
5.7 0.6 0 5.8 0.6 0 5.9 0.6 0 
6 0.6 0 6.1 0.6 0 6.2 0.6 0 
6.3 0.6 0 6.4 0.6 0 6.5 0.6 0 
6.6 0.6 0 6.7 0.6 0 6.8 0.6 0 
6.9 0.6 0 7 0.6 0 7.1 0.6 0 
7.2 0.6 0 7.3 0.6 0 7.4 0.6 0 
7.5 0.6 0 7.6 0.6 0 7.7 0.6 0 
7.8 0.6 0 7.9 0.6 0 8 0.6 0 
8.1 0.6 0 8.2 0.6 0 8.3 0.6 0 
8.4 0.6 0 8.5 0.6 0 8.6 0.6 0 
8.7 0.6 0 8.8 0.6 0 8.9 0.6 0 
9 0.6 0 9.1 0.6 0 9.2 0.6 0 
9.3 0.6 0 9.4 0.6 0 9.5 0.6 0 
9.6 0.6 0 9.7 0.6 0 9.8 0.6 0 
9.9 0.6 0 10 0.6 0 0 0.7 0 
0.1 0.7 0 0.2 0.7 0 0.3 0.7 0 
0.4 0.7 0 0.5 0.7 0 0.6 0.7 0 
0.7 0.7 0 0.8 0.7 0 0.9 0.7 0 
1 0.7 0 1.1 0.7 0 1.2 0.7 0 
1.3 0.7 0 1.4 0.7 0 1.5 0.7 0 
1.6 0.7 0 1.7 0.7 0 1.8 0.7 0 
1.9 0.7 0 2 0.7 0 2.1 0.7 0 
2.2 0.7 0 2.3 0.7 0 2.4 0.7 0 
2.5 0.7 0 2.6 0.7 0 2.7 0.7 0 
2.8 0.7 0 2.9 0.7 0 3 0.7 0 
3.1 0.7 0 3.2 0.7 0 3.3 0.7 0 
3.4 0.7 0 3.5 0.7 0 3.6 0.7 0 
3.7 0.7 0 3.8 0.7 0 3.9 0.7 0 
4 0.7 0 4.1 0.7 0 4.2 0.7 0 
4.3 0.7 0 4.4 0.7 0 4.5 0.7 0 
4.6 0.7 0 4.7 0.7 0 4.8 0.7 0 
4.9 0.7 0 5 0.7 0 5.1 0.7 0 
5.2 0.7 0 5.3 0.7 0 5.4 0.7 0 
5.5 0.7 0 5.6 0.7 0 5.7 0.7 0 
5.8 0.7 0 5.9 0.7 0 6 0.7 0 
6.1 0.7 0 6.2 0.7 0 6.3 0.7 0 
6.4 0.7 0 6.5 0.7 0 6.6 0.7 0 
6.7 0.7 0 6.8 0.7 0 6.9 0.7 0 
7 0.7 0 7.1 0.7 0 7.2 0.7 0 
7.3 0.7 0 7.4 0.7 0 7.5 0.7 0 
7.6 0.7 0 7.7 0.7 0 7.8 0.7 0 
7.9 0.7 0 8 0.7 0 8.1 0.7 0 
8.2 0.7 0 8.3 0.7 0 8.4 0.7 0 
8.5 0.7 0 8.6 0.7 0 8.7 0.7 0 
8.8 0.7 0 8.9 0.7 0 9 0.7 0 
9.1 0.7 0 9.2 0.7 0 9.3 0.7 0 
9.4 0.7 0 9.5 0.7 0 9.6 0.7 0 
9.7 0.7 0 9.8 0.7 0 9.9 0.7 0 
10 0.7 0 0 0.8 0 0.1 0.8 0 
0.2 0.8 0 0.3 0.8 0 0.4 0.8 0 
0.5 0.8 0 0.6 0.8 0 0.7 0.8 0 
0.8 0.8 0 0.9 0.8 0 1 0.8 0 
1.1 0.8 0 1.2 0.8 0 1.3 0.8 0 
1.4 0.8 0 1.5 0.8 0 1.6 0.8 0 
1.7 0.8 0 1.8 0.8 0 1.9 0.8 0 
2 0.8 0 2.1 0.8 0 2.2 0.8 0 
2.3 0.8 0 2.4 0.8 0 2.5 0.8 0 
2.6 0.8 0 2.7 0.8 0 2.8 0.8 0 
2.9 0.8 0 3 0.8 0 3.1 0.8 0 
3.2 0.8 0 3.3 0.8 0 3.4 0.8 0 
3.5 0.8 0 3.6 0.8 0 3.7 0.8 0 
3.8 0.8 0 3.9 0.8 0 4 0.8 0 
4.1 0.8 0 4.2 0.8 0 4.3 0.8 0 
4.4 0.8 0 4.5 0.8 0 4.6 0.8 0 
4.7 0.8 0 4.8 0.8 0 4.9 0.8 0 
5 0.8 0 5.1 0.8 0 5.2 0.8 0 
5.3 0.8 0 5.4 0.8 0 5.5 0.8 0 
5.6 0.8 0 5.7 0.8 0 5.8 0.8 0 
5.9 0.8 0 6 0.8 0 6.1 0.8 0 
6.2 0.8 0 6.3 0.8 0 6.4 0.8 0 
6.5 0.8 0 6.6 0.8 0 6.7 0.8 0 
6.8 0.8 0 6.9 0.8 0 7 0.8 0 
7.1 0.8 0 7.2 0.8 0 7.3 0.8 0 
7.4 0.8 0 7.5 0.8 0 7.6 0.8 0 
7.7 0.8 0 7.8 0.8 0 7.9 0.8 0 
8 0.8 0 8.1 0.8 0 8.2 0.8 0 
8.3 0.8 0 8.4 0.8 0 8.5 0.8 0 
8.6 0.8 0 8.7 0.8 0 8.8 0.8 0 
8.9 0.8 0 9 0.8 0 9.1 0.8 0 
9.2 0.8 0 9.3 0.8 0 9.4 0.8 0 
9.5 0.8 0 9.6 0.8 0 9.7 0.8 0 
9.8 0.8 0 9.9 0.8 0 10 0.8 0 
0 0.9 0 0.1 0.9 0 0.2 0.9 0 
0.3 0.9 0 0.4 0.9 0 0.5 0.9 0 
0.6 0.9 0 0.7 0.9 0 0.8 0.9 0 
0.9 0.9 0 1 0.9 0 1.1 0.9 0 
1.2 0.9 0 1.3 0.9 0 1.4 0.9 0 
1.5 0.9 0 1.6 0.9 0 1.7 0.9 0 
1.8 0.9 0 1.9 0.9 0 2 0.9 0 
2.1 0.9 0 2.2 0.9 0 2.3 0.9 0 
2.4 0.9 0 2.5 0.9 0 2.6 0.9 0 
2.7 0.9 0 2.8 0.9 0 2.9 0.9 0 
3 0.9 0 3.1 0.9 0 3.2 0.9 0 
3.3 0.9 0 3.4 0.9 0 3.5 0.9 0 
3.6 0.9 0 3.7 0.9 0 3.8 0.9 0 
3.9 0.9 0 4 0.9 0 4.1 0.9 0 
4.2 0.9 0 4.3 0.9 0 4.4 0.9 0 
4.5 0.9 0 4.6 0.9 0 4.7 0.9 0 
4.8 0.9 0 4.9 0.9 0 5 0.9 0 
5.1 0.9 0 5.2 0.9 0 5.3 0.9 0 
5.4 0.9 0 5.5 0.9 0 5.6 0.9 0 
5.7 0.9 0 5.8 0.9 0 5.9 0.9 0 
6 0.9 0 6.1 0.9 0 6.2 0.9 0 
6.3 0.9 0 6.4 0.9 0 6.5 0.9 0 
6.6 0.9 0 6.7 0.9 0 6.8 0.9 0 
6.9 0.9 0 7 0.9 0 7.1 0.9 0 
7.2 0.9 0 7.3 0.9 0 7.4 0.9 0 
7.5 0.9 0 7.6 0.9 0 7.7 0.9 0 
7.8 0.9 0 7.9 0.9 0 8 0.9 0 
8.1 0.9 0 8.2 0.9 0 8.3 0.9 0 
8.4 0.9 0 8.5 0.9 0 8.6 0.9 0 
[...]
CELL_DATA 2000
FIELD FieldData 2
pressure 1 2000 double
0 0 0 0 0 0 0 0 0 
-0.13348974065 -0.13348974065 -0.13402744946 -0.13446444956 -0.13459643723 -0.13438784036 -0.13384587387 -0.13297169755 -0.13174694876 
-0.13013170911 -0.12806667122 -0.12547773778 -0.12228187804 -0.11839389121 -0.11373451591 -0.10824138906 -0.10187967085 -0.094653185385 
-0.086608650168 -0.077835519201 -0.068465033702 -0.058695936696 -0.048695962335 -0.038637055143 -0.028678193084 -0.018964323745 -0.0096372742197 
-0.00081404648447 0.0074235090654 0.015029012593 0.02194529339 0.028139454602 0.033632386497 0.038415102283 0.042495876015 0.04592445235 
0.048721332082 0.050942072348 0.052641214109 0.053872377124 0.054687694204 0.055137098565 0.05526773612 0.055123556549 0.054745030017 
0.054168944672 0.053428301412 0.052552348099 0.051566754003 0.050493864752 0.04935296243 0.048160496859 0.046930307677 0.045673872658 
0.044400589754 0.043118064069 0.041832362089 0.040548217504 0.03926920214 0.037997887878 0.03673601363 0.0354846485 0.03424432983 
0.033015165257 0.03179690903 0.030589031556 0.029390790367 0.02820129659 0.027019568806 0.025844572924 0.024675250785 0.023510540699 
0.022349394238 0.021190793908 0.020033772052 0.018877425373 0.017720920927 0.016563496246 0.015404459562 0.014243192189 0.013079150471 
0.011911865486 0.010740940629 0.009566048119 0.0083869236363 0.007203359901 0.0060152001033 0.004822334167 0.0036247020083 0.0024223161082 
0.0012153024962 0 0 0 0 0 0 0 0 
0 -0.13295092482 -0.13295092482 -0.13353731192 -0.13387191456 -0.13392450214 -0.13368618872 -0.13314914539 -0.13229741192 
-0.13110235757 -0.12952109879 -0.12749788483 -0.12496663795 -0.12185257617 -0.11807461654 -0.11355025369 -0.10820959878 -0.10200658561 
-0.094936303527 -0.087037447595 -0.078401334019 -0.069180114257 -0.059513540637 -0.049593685969 -0.039601820892 -0.029699336352 -0.020021887473 
-0.010718118739 -0.0019104354727 0.0063138265337 0.013932312002 0.020868032873 0.027066010181 0.03260890681 0.037453374712 0.041584816521 
0.045052936434 0.047897678898 0.050168827864 0.051918999887 0.053200980427 0.054066367662 0.054564683806 0.054742760119 0.054644300334 
0.054309553848 0.053775091824 0.053073724297 0.052234575559 0.051283274866 0.050242185927 0.049130624534 0.047965068263 0.046759391114 
0.045525138292 0.044271819039 0.043007178327 0.04173742406 0.040467416176 0.039200841442 0.037940391521 0.03668794045 0.035444701492 
0.034211348419 0.032988106708 0.031774833284 0.030571096469 0.029376252419 0.028189509114 0.027009975143 0.025836695978 0.024668681206 
0.023504926589 0.022344435682 0.021186242137 0.020029428178 0.018873134473 0.017716563021 0.016558979152 0.015399715696 0.014238176767 
0.013073839108 0.011906250993 0.010735030024 0.0095598591481 0.0083804812722 0.0071966932564 0.0060083409483 0.0048153158386 0.0036175591062 
0.0024151053214 0.0012083408997 0 0 0 0 0 0 0 
0 0 -0.1326429984 -0.1326429984 -0.13342264186 -0.13376247227 -0.13378755143 -0.13354073683 -0.1330214572 
-0.1322089621 -0.131070538 -0.12956394037 -0.12763919555 -0.1252381514 -0.12228885647 -0.11870395809 -0.11437890953 -0.10922568776 
-0.10317321782 -0.096211061554 -0.088385090242 -0.079755541777 -0.070492832352 -0.060781443778 -0.050815676673 -0.040789569968 -0.030866208264 
-0.021137014527 -0.011790094079 -0.0029576959194 0.005247003855 0.012939024632 0.019940908598 0.026205989906 0.031766506617 0.036620555114 
0.040777144452 0.044271464953 0.047145454287 0.049447728908 0.051230095966 0.052544980878 0.053443806123 0.053975970164 0.054188183644 
0.054123999807 0.053823465972 0.053322909927 0.052654897027 0.051848342944 0.050928709586 0.049918211336 0.048836011145 0.047698434452 
0.046519229111 0.045309861603 0.044079808855 0.042836810139 0.041587074595 0.04033546625 0.039085690054 0.037840482579 0.036601789313 
0.035370907653 0.034148593367 0.03293514828 0.031730506732 0.030534321722 0.029346040416 0.0281649627 0.026990284606 0.02582113103 
0.024656582628 0.023495701384 0.022337557003 0.021181249173 0.020025921715 0.018870768573 0.017715037395 0.016558035322 0.015399135308 
0.014237779783 0.013073481047 0.011905820118 0.010734443885 0.0095590600585 0.0083794302655 0.007195361848 0.0060066962614 0.004813290442 
0.0036149881296 0.0024115860178 0.0012028740921 0 0 0 0 0 0 
0 0 0 -0.13311688909 -0.13311688909 -0.13405175636 -0.13440701465 -0.13441307731 -0.13415182724 
-0.13363518767 -0.13284723563 -0.13175861671 -0.13033209494 -0.12852594322 -0.12629182059 -0.12355323133 -0.1202104448 -0.11610296603 
-0.11113355541 -0.1051792526 -0.098176617722 -0.090196866811 -0.08144685015 -0.072063078113 -0.0622450941 -0.052190068553 -0.042115146429 
-0.032199572722 -0.022349192015 -0.012954883149 -0.0040787745456 0.0042126858951 0.011898630302 0.018900398687 0.025182535481 0.030748580119 
0.035605462836 0.039771032194 0.043278543671 0.046170148664 0.048494055771 0.050301604727 0.051644871323 0.052574995884 0.053141106277 
0.053389618635 0.053363740111 0.053103111833 0.052643618981 0.05201738903 0.051252931589 0.050375332098 0.049406441507 0.048365068314 
0.047267210749 0.04612634205 0.044953717195 0.043758653937 0.042548765231 0.0413301561 0.040107613419 0.038884803822 0.037664468839 
0.036448592557 0.035238528232 0.034035095088 0.032838667734 0.031649267979 0.030466651146 0.029290376064 0.028119856997 0.026954401763 
0.025793240048 0.024635551885 0.023480498703 0.022327252928 0.021175012491 0.020023009412 0.018870516225 0.01771685371 0.016561399771 
0.015403596233 0.014242951554 0.01307904114 0.011911506011 0.010740049271 0.0095644301297 0.0083844556337 0.0071999673928 0.006010817137 
0.004816822272 0.0036176875868 0.0024128680691 0.0012013382096 0 0 0 0 0 
0 0 0 0 -0.13479612107 -0.13479612107 -0.135754238 -0.13601347218 -0.13589993283 
-0.13553300357 -0.13494013594 -0.13411319672 -0.13302611903 -0.13164272808 -0.1299256407 -0.12784251384 -0.1252927199 -0.12218676371 
-0.11820944964 -0.11336154542 -0.10711718171 -0.099858368906 -0.091794227762 -0.082936829446 -0.07342566782 -0.063559995161 -0.053486828648 
-0.043357397335 -0.033344746268 -0.023545963504 -0.014159830784 -0.0052901995084 0.0029920310863 0.010639864563 0.017602399619 0.023852640503 
0.029388564284 0.034220629534 0.038370837764 0.041872812816 0.044768622596 0.047105943827 0.048935374843 0.050308190279 0.051274722373 
0.05188329849 0.052179531515 0.052205802792 0.052000903975 0.051599874913 0.051034038364 0.050331157298 0.049515622165 0.048608630749 
0.047628387057 0.046590355154 0.045507561667 0.044390900585 0.043249396985 0.042090422973 0.040919891021 0.039742451501 0.038561697092 
0.037380352362 0.036200425623 0.035023320571 0.033849928263 0.03268071985 0.031515839136 0.030355182783 0.029198461955 0.028045248797 
0.02689501003 0.025747124811 0.024600918127 0.023455700728 0.022310805045 0.021165572561 0.020019360718 0.018871558337 0.017721599375 
0.016568972944 0.015413228896 0.01425398008 0.013090902749 0.011923735393 0.010752275963 0.0095763772395 0.0083959388222 0.0072108899405 
0.00602115445 0.0048265853241 0.0036268467588 0.0024211987182 0.0012080639993 0 0 0 0 
0 0 0 0 0 -0.13803396682 -0.13803396682 -0.13874013943 -0.13858585463 
-0.13808579549 -0.13741534678 -0.13660757205 -0.13564804742 -0.13449502695 -0.13309222683 -0.13138737074 -0.12939837099 -0.12691377596 
-0.1240334605 -0.11991054371 -0.11450841237 -0.10820501976 -0.10087815316 -0.092695541029 -0.083771195207 -0.074268944691 -0.064403671719 
-0.054349377915 -0.044268822898 -0.034319430445 -0.024633844741 -0.015357313599 -0.006594468571 0.0015806870696 0.0091160747293 0.015972143046 
0.022128488201 0.027583882399 0.032350977807 0.036453848845 0.039926511947 0.042810581678 0.045152717027 0.047002140109 0.048408567076 
0.049420722681 0.0500853504 0.0504465167 0.050545084688 0.0504183637 0.050099979668 0.049619942182 0.04900481146 0.04827787709 
0.047459332809 0.046566486127 0.045614029062 0.044614345522 0.043577803018 0.042512995818 0.041426947907 0.040325305927 0.039212541224 
0.038092151546 0.036966835852 0.035838628814 0.034708999982 0.033578942678 0.032449069559 0.031319699316 0.030190923679 0.02906265916 
0.027934694935 0.026806729374 0.025678345104 0.024549060316 0.023418386994 0.022285908808 0.021151160535 0.020013660718 0.018872956218 
0.017728641131 0.016580362621 0.015427824187 0.014270787168 0.013109071537 0.011942556234 0.01077118034 0.0095949428102 0.0084138985657 
0.0072281443906 0.0060377861967 0.0048428734317 0.0036432726378 0.0024384237895 0.0012267991549 0 0 0 
0 0 0 0 0 0 -0.14332873389 -0.14332873389 -0.14309155208 
-0.14182856807 -0.14047984447 -0.13924033788 -0.13807739958 -0.13692398772 -0.13566797791 -0.13418748507 -0.13246172594 -0.13063885053 
-0.12803410342 -0.12446872672 -0.12002695569 -0.11456620946 -0.10814551161 -0.10078354083 -0.09259792862 -0.083723320834 -0.0743244011 
-0.064588379152 -0.054690903071 -0.044795446013 -0.035052693823 -0.025596095154 -0.016548675046 -0.0080078607386 -4.5654285031e-05 0.0072875479039 
0.013958951853 0.019953511894 0.025272439982 0.029930009896 0.033951193021 0.037369825206 0.040226477429 0.042566082133 0.044435650533 
0.045882431249 0.046952619812 0.047690477342 0.048137664199 0.048332718604 0.048310730317 0.048103252168 0.047738397187 0.047241008982 
0.046632829969 0.045932673241 0.045156641327 0.044318404148 0.043429498631 0.042499599169 0.04153673901 0.040547502409 0.039537215084 
0.038510143221 0.037469682937 0.036418512069 0.035358712692 0.034291856992 0.033219087716 0.032141222048 0.031058823972 0.02997224465 
0.028881659525 0.027787141506 0.026688751663 0.025586316152 0.024479573238 0.023368246052 0.022252378582 0.02113171757 0.020005949249 
0.018874818753 0.017738133376 0.016595749085 0.015447570568 0.014293552055 0.013133699409 0.0119680736 0.010796800689 0.0096200771078 
0.0084381761605 0.0072514488197 0.0060603138028 0.0048652240778 0.0036665829878 0.0024645518453 0.0012585575269 0 0 
0 0 0 0 0 0 0 -0.15187196305 -0.15187196305 
-0.14870532013 -0.14500151794 -0.14225141 -0.14040569886 -0.13884640716 -0.13737970863 -0.13619206867 -0.13459551334 -0.13271689076 
-0.13017015059 -0.12724774405 -0.12352464037 -0.11892243449 -0.11337643784 -0.10691137213 -0.099582154573 -0.091495180965 -0.082784485239 
-0.073607410428 -0.064135406674 -0.054536472905 -0.04496719376 -0.035569030139 -0.026466599593 -0.01776863645 -0.0095632950749 -0.0019168488141 
0.0051251597308 0.011535629726 0.017303999112 0.022433909129 0.026940700321 0.030849414495 0.034192993483 0.03701021331 0.039343431615 
0.041236531592 0.042733360787 0.043876666718 0.044707331609 0.04526374408 0.045581303411 0.0456921398 0.045625077467 0.045405758488 
0.045056810238 0.044598001279 0.044046409762 0.043416645809 0.042721125549 0.041970352004 0.041173159802 0.040336914123 0.039467692783 
0.03857046654 0.03764928593 0.036707454572 0.035747641168 0.034772017707 0.033782317241 0.032779877888 0.0317658003 0.030740988094 
0.029706125219 0.028661668451 0.027607996303 0.026545879982 0.025475317749 0.02439626446 0.023308399532 0.022212946518 0.021109655924 
0.019998312287 0.018878931249 0.017751586196 0.016616394691 0.015473508584 0.014323115017 0.013165442569 0.012000773262 0.010829449337 
0.0096518984584 0.0084686546516 0.0072803851337 0.0060879230244 0.0048923015786 0.0036947747436 0.0024967782125 0.0012996733249 0 
0 0 0 0 0 0 0 0 -0.1666655537 
-0.1666655537 -0.15488145829 -0.14680673524 -0.14234699219 -0.14020471709 -0.13830743694 -0.13680715726 -0.13500105556 -0.1332047917 
-0.13109438455 -0.12847171654 -0.12530205843 -0.12139647463 -0.11666079127 -0.11105844287 -0.10461566061 -0.097398340784 -0.089507693591 
-0.0810703487 -0.072232616169 -0.063151544169 -0.053982127378 -0.044868198391 -0.03593820457 -0.027304364132 -0.019062783299 -0.011291450716 
-0.0040487479067 0.0026262947406 0.0087120564893 0.014201747723 0.019100893163 0.023425283193 0.027199321323 0.03045429911 0.033226359337 
0.035554391373 0.037478261964 0.039037566207 0.040270783049 0.041214614047 0.041903401777 0.042368687245 0.042639000189 0.042739878938 
0.042694013642 0.042521403476 0.042239497959 0.04186335994 0.041405884498 0.040878056944 0.040289206528 0.039647225961 0.038958742924 
0.038229298005 0.037463496548 0.036665175385 0.035837584832 0.034983373827 0.034104880156 0.033204093975 0.03228253023 0.031341675171 
0.030382920577 0.029407389418 0.02841574912 0.027408324867 0.0263878953 0.025354088786 0.024307223924 0.023248109812 0.022176061502 
0.021091822708 0.019996087824 0.018889327399 0.017771964325 0.016644409145 0.015507077373 0.01436039963 0.013204833258 0.012040877494 
0.010869097526 0.0096901491955 0.0085048184883 0.0073140782321 0.006119170842 0.0049217293156 0.0037239550503 0.0025288779195 0.0013406943017 
0.20575181206 0.22060058794 0.14915437457 0.093322671559 0.045282221211 0.001905507744 -0.038615392189 -0.078118067094 -0.11972096854 
-0.17713117551 -0.19262975346 -0.15766080612 -0.14535961629 -0.14044027384 -0.13749838102 -0.13582674941 -0.13429457135 -0.13258879783 
-0.13067769309 -0.12840325293 -0.12562957655 -0.12226797674 -0.11820739791 -0.1133827265 -0.10778099249 -0.1014368699 -0.094418546294 
-0.086820614957 -0.078759378426 -0.070368082651 -0.06178814313 -0.053157974144 -0.044604834842 -0.036241626101 -0.028166708388 -0.020463715338 
-0.013199906232 -0.0064247096722 -0.00017003457905 0.0055476301442 0.010724526565 0.015367382714 0.019491810178 0.023120890889 0.02628348441 
0.029012253867 0.031341792197 0.033307195118 0.034943119684 0.036283125563 0.037359101432 0.038200747212 0.038835213052 0.039286974801 
0.039577906143 0.03972742839 0.039752649861 0.039668491305 0.039487840462 0.039221760783 0.03887971866 0.038469799983 0.037998921845 
0.037472946579 0.03689690176 0.03627504323 0.03561097988 0.034908066546 0.034168755081 0.033395719631 0.032591465832 0.031757348185 
0.030895430915 0.030007875527 0.029096729886 0.028163323663 0.027209180398 0.026233314385 0.025237782474 0.024223859755 0.023192563587 
0.022144487815 0.021080489152 0.020001450048 0.018908174346 0.017801411218 0.016681875415 0.015550261953 0.01440725908 0.013253563366 
0.012089898783 0.010917042259 0.0097358583193 0.0085473514356 0.0073527462258 0.0061536119323 0.0049520601767 0.00375106437 0.0025549817481 
0.0013703963698 0.20575181206 0.22060058794 0.14915437457 0.093322671559 0.045282221211 0.001905507744 -0.038615392189 -0.078118067094 
-0.11972096854 -0.16163259757 -0.16672460777 -0.15270162005 -0.14296448632 -0.13765978044 -0.13458822636 -0.13262385578 -0.13094368323 
-0.12916102922 -0.1271186339 -0.12469055164 -0.12176973225 -0.11827013377 -0.11411895421 -0.10928096356 -0.10376313291 -0.0976069857 
-0.090878528325 -0.083664056226 -0.076068515739 -0.068211112379 -0.060216362662 -0.052204183472 -0.044283698683 -0.036551561259 -0.029092086345 
-0.021976518054 -0.015261198016 -0.0089864185406 -0.0031772171575 0.0021543361092 0.0070067061001 0.011387142878 0.015310454683 0.018797708303 
0.021874559606 0.024569433214 0.026911969625 0.028931957481 0.030658656881 0.032120283678 0.033343517782 0.034353071874 0.035171433498 
0.035818825932 0.036313315929 0.036670952877 0.036905883742 0.037030464235 0.03705540004 0.036989946264 0.036842077056 0.036618632199 
0.03632562872 0.035968131736 0.035550792134 0.035077577702 0.034551630427 0.033977199013 0.033355505844 0.032690068114 0.031985001339 
0.031240144261 0.030459585156 0.02964534779 0.028799086956 0.027922936865 0.027018706278 0.026087495629 0.02513097829 0.02415072011 
0.023148124586 0.02212441935 0.021080828867 0.020018550657 0.018938721164 0.017842414713 0.016730651539 0.015604408362 0.014464631006 
0.01331224973 0.012148198323 0.010973439978 0.0097890043204 0.0085960437 0.0073959203487 0.0061903459555 0.0049816105814 0.0037729662036 
0.002569280686 0.0013781671179 0.14001367254 0.18879408784 0.14023462745 0.09295500662 0.048559782895 0.0069714410099 -0.032323183388 
-0.069749264904 -0.10356581057 -0.13104594796 -0.14120695446 -0.13916749765 -0.13509448876 -0.13189844019 -0.12965434608 -0.1279518917 
-0.12635664041 -0.12459487243 -0.12252173591 -0.12003844602 -0.1170627165 -0.11352809426 -0.10939152912 -0.10464395243 -0.099308198406 
-0.093430036907 -0.08707193802 -0.080312458965 -0.073245959402 -0.065977684168 -0.058614915057 -0.051258933967 -0.044001198582 -0.036922913704 
-0.030094979844 -0.0235766383 -0.017413648884 -0.01163775725 -0.0062680250053 -0.0013130800809 0.0032269421604 0.007359153909 0.011096922166 
0.0144586061 0.017465972841 0.020142641254 0.022512899769 0.024600966022 0.026430514072 0.028024267766 0.029403597463 0.030588195503 
0.031595925642 0.03244285304 0.033143363873 0.033710271472 0.034154901887 0.034487202952 0.034715848347 0.034848473905 0.034891739455 
0.034851193646 0.034732325343 0.034539088193 0.034276228729 0.03394778045 0.03355461509 0.033106095455 0.032597187738 0.032033186699 
0.031418221829 0.030758629219 0.030055518636 0.029311057928 0.028527424714 0.027706886935 0.026851585736 0.025963445016 0.02504444555 
0.024096508436 0.023121444715 0.022120948073 0.021096638186 0.020050064373 0.018982697281 0.017895927248 0.016791068401 0.015669366595 
0.014532010145 0.013380142959 0.012214881169 0.011037335655 0.0098486442363 0.008650019254 0.0074428210154 0.0062286751596 0.0050096670433 
0.0037886734231 0.0025699403673 0.0013600841349 0.10833383298 0.15985869136 0.12869482206 0.092207294774 0.054329169851 0.016986790654 
-0.018812673639 -0.052113089215 -0.080761282267 -0.10337605325 -0.11644668965 -0.12153969676 -0.1228466352 -0.12281031699 -0.12232032052 
-0.12156685319 -0.12050086863 -0.11904874397 -0.11716021554 -0.11479247124 -0.1119027568 -0.10845814688 -0.10444803628 -0.099888412925 
-0.094815777669 -0.089279563692 -0.083340062723 -0.07707028577 -0.070555530377 -0.06388777675 -0.057157800365 -0.050449604708 -0.043838743969 
-0.037392506505 -0.031169387609 -0.025217399729 -0.019572667404 -0.01425962182 -0.0092926422999 -0.0046779992027 -0.00041524036127 0.0035019375188 
0.00708480377 0.010348379856 0.013310046152 0.015988327572 0.018402071656 0.020569968225 0.022510221444 0.02424023471 0.025776306075 
0.02713341744 0.02832517505 0.029363879959 0.030260637388 0.031025397859 0.031666999893 0.032193346681 0.032611321986 0.032927311559 
0.033147205766 0.033274525327 0.033315983427 0.033272429837 0.033150292479 0.032956437226 0.032679735828 0.03232839862 0.03191713276 
0.031447426806 0.030920607726 0.030339984341 0.02970810148 0.029027566928 0.028301003064 0.027531031826 0.026720202899 0.025870959368 
0.024985687804 0.024066694121 0.023116180228 0.022136236407 0.021128849877 0.020095907111 0.019039191956 0.017960385458 0.016861069042 
0.015742730617 0.014606772719 0.013454522498 0.012287244227 0.011106155541 0.0099124488992 0.0087073212079 0.0074920160748 0.0062678876622 
0.0050365028345 0.0037998143808 0.0025604636208 0.0013222430434 0.09318467368 0.14284757752 0.1210290627 0.092241687376 0.060127166842 
0.027151436662 -0.0049922431876 -0.034900615633 -0.060929992736 -0.081818996549 -0.096346634151 -0.1051566501 -0.1101244921 -0.11282573621 
-0.11416746712 -0.1145811748 -0.11425688659 -0.11328777423 -0.11172392093 -0.10958566785 -0.10687708653 -0.10360489005 -0.09979124415 
-0.095474395667 -0.090702210605 -0.085527953502 -0.080011582918 -0.07422232492 -0.068237320185 -0.062136010057 -0.055994127679 -0.049880635993 
-0.043857482428 -0.037979805366 -0.032295002926 -0.026841177069 -0.021646413955 -0.016729547843 -0.012101781384 -0.0077681584121 -0.0037284808761 
2.20368372e-05 0.0034919434178 0.0066924613789 0.0096363739084 0.012337164631 0.014808493398 0.017063898336 0.019116565928 0.020979095834 
0.022663298474 0.024180090064 0.025539486038 0.026750674553 0.027822132287 0.028761536689 0.029575655018 0.030271024159 0.03085281047 
0.031326523514 0.031699718811 0.031968838993 0.032150863992 0.032233395012 0.032215624996 0.032107993475 0.031931431541 0.031680807222 
0.031360202982 0.030972580956 0.030520652287 0.030007543119 0.029436312803 0.028810012572 0.028131678695 0.027404313825 0.026630854321 