# vtk DataFile Version 4.0
vtk output
ASCII
DATASET STRUCTURED_GRID
DIMENSIONS 51 51 1
POINTS 2601 float
0 0 0 0.02 0 0 0.04 0 0 
0.06 0 0 0.08 0 0 0.1 0 0 
0.12 0 0 0.14 0 0 0.16 0 0 
0.18 0 0 0.2 0 0 0.22 0 0 
0.24 0 0 0.26 0 0 0.28 0 0 
0.3 0 0 0.32 0 0 0.34 0 0 
0.36 0 0 0.38 0 0 0.4 0 0 
0.42 0 0 0.44 0 0 0.46 0 0 
0.48 0 0 0.5 0 0 0.52 0 0 
0.54 0 0 0.56 0 0 0.58 0 0 
0.6 0 0 0.62 0 0 0.64 0 0 
0.66 0 0 0.68 0 0 0.7 0 0 
0.72 0 0 0.74 0 0 0.76 0 0 
0.78 0 0 0.8 0 0 0.82 0 0 
0.84 0 0 0.86 0 0 0.88 0 0 
0.9 0 0 0.92 0 0 0.94 0 0 
0.96 0 0 0.98 0 0 1 0 0 
0 0.02 0 0.02 0.02 0 0.04 0.02 0 
0.06 0.02 0 0.08 0.02 0 0.1 0.02 0 
0.12 0.02 0 0.14 0.02 0 0.16 0.02 0 
0.18 0.02 0 0.2 0.02 0 0.22 0.02 0 
0.24 0.02 0 0.26 0.02 0 0.28 0.02 0 
0.3 0.02 0 0.32 0.02 0 0.34 0.02 0 
0.36 0.02 0 0.38 0.02 0 0.4 0.02 0 
0.42 0.02 0 0.44 0.02 0 0.46 0.02 0 
0.48 0.02 0 0.5 0.02 0 0.52 0.02 0 
0.54 0.02 0 0.56 0.02 0 0.58 0.02 0 
0.6 0.02 0 0.62 0.02 0 0.64 0.02 0 
0.66 0.02 0 0.68 0.02 0 0.7 0.02 0 
0.72 0.02 0 0.74 0.02 0 0.76 0.02 0 
0.78 0.02 0 0.8 0.02 0 0.82 0.02 0 
0.84 0.02 0 0.86 0.02 0 0.88 0.02 0 
0.9 0.02 0 0.92 0.02 0 0.94 0.02 0 
0.96 0.02 0 0.98 0.02 0 1 0.02 0 
0 0.04 0 0.02 0.04 0 0.04 0.04 0 
0.06 0.04 0 0.08 0.04 0 0.1 0.04 0 
0.12 0.04 0 0.14 0.04 0 0.16 0.04 0 
0.18 0.04 0 0.2 0.04 0 0.22 0.04 0 
0.24 0.04 0 0.26 0.04 0 0.28 0.04 0 
0.3 0.04 0 0.32 0.04 0 0.34 0.04 0 
0.36 0.04 0 0.38 0.04 0 0.4 0.04 0 
0.42 0.04 0 0.44 0.04 0 0.46 0.04 0 
0.48 0.04 0 0.5 0.04 0 0.52 0.04 0 
0.54 0.04 0 0.56 0.04 0 0.58 0.04 0 
0.6 0.04 0 0.62 0.04 0 0.64 0.04 0 
0.66 0.04 0 0.68 0.04 0 0.7 0.04 0 
0.72 0.04 0 0.74 0.04 0 0.76 0.04 0 
0.78 0.04 0 0.8 0.04 0 0.82 0.04 0 
0.84 0.04 0 0.86 0.04 0 0.88 0.04 0 
0.9 0.04 0 0.92 0.04 0 0.94 0.04 0 
0.96 0.04 0 0.98 0.04 0 1 0.04 0 
0 0.06 0 0.02 0.06 0 0.04 0.06 0 
0.06 0.06 0 0.08 0.06 0 0.1 0.06 0 
0.12 0.06 0 0.14 0.06 0 0.16 0.06 0 
0.18 0.06 0 0.2 0.06 0 0.22 0.06 0 
0.24 0.06 0 0.26 0.06 0 0.28 0.06 0 
0.3 0.06 0 0.32 0.06 0 0.34 0.06 0 
0.36 0.06 0 0.38 0.06 0 0.4 0.06 0 
0.42 0.06 0 0.44 0.06 0 0.46 0.06 0 
0.48 0.06 0 0.5 0.06 0 0.52 0.06 0 
0.54 0.06 0 0.56 0.06 0 0.58 0.06 0 
0.6 0.06 0 0.62 0.06 0 0.64 0.06 0 
0.66 0.06 0 0.68 0.06 0 0.7 0.06 0 
0.72 0.06 0 0.74 0.06 0 0.76 0.06 0 
0.78 0.06 0 0.8 0.06 0 0.82 0.06 0 
0.84 0.06 0 0.86 0.06 0 0.88 0.06 0 
0.9 0.06 0 0.92 0.06 0 0.94 0.06 0 
0.96 0.06 0 0.98 0.06 0 1 0.06 0 
0 0.08 0 0.02 0.08 0 0.04 0.08 0 
0.06 0.08 0 0.08 0.08 0 0.1 0.08 0 
0.12 0.08 0 0.14 0.08 0 0.16 0.08 0 
0.18 0.08 0 0.2 0.08 0 0.22 0.08 0 
0.24 0.08 0 0.26 0.08 0 0.28 0.08 0 
0.3 0.08 0 0.32 0.08 0 0.34 0.08 0 
0.36 0.08 0 0.38 0.08 0 0.4 0.08 0 
0.42 0.08 0 0.44 0.08 0 0.46 0.08 0 
0.48 0.08 0 0.5 0.08 0 0.52 0.08 0 
0.54 0.08 0 0.56 0.08 0 0.58 0.08 0 
0.6 0.08 0 0.62 0.08 0 0.64 0.08 0 
0.66 0.08 0 0.68 0.08 0 0.7 0.08 0 
0.72 0.08 0 0.74 0.08 0 0.76 0.08 0 
0.78 0.08 0 0.8 0.08 0 0.82 0.08 0 
0.84 0.08 0 0.86 0.08 0 0.88 0.08 0 
0.9 0.08 0 0.92 0.08 0 0.94 0.08 0 
0.96 0.08 0 0.98 0.08 0 1 0.08 0 
0 0.1 0 0.02 0.1 0 0.04 0.1 0 
0.06 0.1 0 0.08 0.1 0 0.1 0.1 0 
0.12 0.1 0 0.14 0.1 0 0.16 0.1 0 
0.18 0.1 0 0.2 0.1 0 0.22 0.1 0 
0.24 0.1 0 0.26 0.1 0 0.28 0.1 0 
0.3 0.1 0 0.32 0.1 0 0.34 0.1 0 
0.36 0.1 0 0.38 0.1 0 0.4 0.1 0 
0.42 0.1 0 0.44 0.1 0 0.46 0.1 0 
0.48 0.1 0 0.5 0.1 0 0.52 0.1 0 
0.54 0.1 0 0.56 0.1 0 0.58 0.1 0 
0.6 0.1 0 0.62 0.1 0 0.64 0.1 0 
0.66 0.1 0 0.68 0.1 0 0.7 0.1 0 
0.72 0.1 0 0.74 0.1 0 0.76 0.1 0 
0.78 0.1 0 0.8 0.1 0 0.82 0.1 0 
0.84 0.1 0 0.86 0.1 0 0.88 0.1 0 
0.9 0.1 0 0.92 0.1 0 0.94 0.1 0 
0.96 0.1 0 0.98 0.1 0 1 0.1 0 
0 0.12 0 0.02 0.12 0 0.04 0.12 0 
0.06 0.12 0 0.08 0.12 0 0.1 0.12 0 
0.12 0.12 0 0.14 0.12 0 0.16 0.12 0 
0.18 0.12 0 0.2 0.12 0 0.22 0.12 0 
0.24 0.12 0 0.26 0.12 0 0.28 0.12 0 
0.3 0.12 0 0.32 0.12 0 0.34 0.12 0 
0.36 0.12 0 0.38 0.12 0 0.4 0.12 0 
0.42 0.12 0 0.44 0.12 0 0.46 0.12 0 
0.48 0.12 0 0.5 0.12 0 0.52 0.12 0 
0.54 0.12 0 0.56 0.12 0 0.58 0.12 0 
0.6 0.12 0 0.62 0.12 0 0.64 0.12 0 
0.66 0.12 0 0.68 0.12 0 0.7 0.12 0 
0.72 0.12 0 0.74 0.12 0 0.76 0.12 0 
0.78 0.12 0 0.8 0.12 0 0.82 0.12 0 
0.84 0.12 0 0.86 0.12 0 0.88 0.12 0 
0.9 0.12 0 0.92 0.12 0 0.94 0.12 0 
0.96 0.12 0 0.98 0.12 0 1 0.12 0 
0 0.14 0 0.02 0.14 0 0.04 0.14 0 
0.06 0.14 0 0.08 0.14 0 0.1 0.14 0 
0.12 0.14 0 0.14 0.14 0 0.16 0.14 0 
0.18 0.14 0 0.2 0.14 0 0.22 0.14 0 
0.24 0.14 0 0.26 0.14 0 0.28 0.14 0 
0.3 0.14 0 0.32 0.14 0 0.34 0.14 0 
0.36 0.14 0 0.38 0.14 0 0.4 0.14 0 
0.42 0.14 0 0.44 0.14 0 0.46 0.14 0 
0.48 0.14 0 0.5 0.14 0 0.52 0.14 0 
0.54 0.14 0 0.56 0.14 0 0.58 0.14 0 
0.6 0.14 0 0.62 0.14 0 0.64 0.14 0 
0.66 0.14 0 0.68 0.14 0 0.7 0.14 0 
0.72 0.14 0 0.74 0.14 0 0.76 0.14 0 
0.78 0.14 0 0.8 0.14 0 0.82 0.14 0 
0.84 0.14 0 0.86 0.14 0 0.88 0.14 0 
0.9 0.14 0 0.92 0.14 0 0.94 0.14 0 
0.96 0.14 0 0.98 0.14 0 1 0.14 0 
0 0.16 0 0.02 0.16 0 0.04 0.16 0 
0.06 0.16 0 0.08 0.16 0 0.1 0.16 0 
0.12 0.16 0 0.14 0.16 0 0.16 0.16 0 
0.18 0.16 0 0.2 0.16 0 0.22 0.16 0 
0.24 0.16 0 0.26 0.16 0 0.28 0.16 0 
0.3 0.16 0 0.32 0.16 0 0.34 0.16 0 
0.36 0.16 0 0.38 0.16 0 0.4 0.16 0 
0.42 0.16 0 0.44 0.16 0 0.46 0.16 0 
0.48 0.16 0 0.5 0.16 0 0.52 0.16 0 
0.54 0.16 0 0.56 0.16 0 0.58 0.16 0 
0.6 0.16 0 0.62 0.16 0 0.64 0.16 0 
0.66 0.16 0 0.68 0.16 0 0.7 0.16 0 
0.72 0.16 0 0.74 0.16 0 0.76 0.16 0 
0.78 0.16 0 0.8 0.16 0 0.82 0.16 0 
0.84 0.16 0 0.86 0.16 0 0.88 0.16 0 
0.9 0.16 0 0.92 0.16 0 0.94 0.16 0 
0.96 0.16 0 0.98 0.16 0 1 0.16 0 
0 0.18 0 0.02 0.18 0 0.04 0.18 0 
0.06 0.18 0 0.08 0.18 0 0.1 0.18 0 
0.12 0.18 0 0.14 0.18 0 0.16 0.18 0 
0.18 0.18 0 0.2 0.18 0 0.22 0.18 0 
0.24 0.18 0 0.26 0.18 0 0.28 0.18 0 
0.3 0.18 0 0.32 0.18 0 0.34 0.18 0 
0.36 0.18 0 0.38 0.18 0 0.4 0.18 0 
0.42 0.18 0 0.44 0.18 0 0.46 0.18 0 
0.48 0.18 0 0.5 0.18 0 0.52 0.18 0 
0.54 0.18 0 0.56 0.18 0 0.58 0.18 0 
0.6 0.18 0 0.62 0.18 0 0.64 0.18 0 
0.66 0.18 0 0.68 0.18 0 0.7 0.18 0 
0.72 0.18 0 0.74 0.18 0 0.76 0.18 0 
0.78 0.18 0 0.8 0.18 0 0.82 0.18 0 
0.84 0.18 0 0.86 0.18 0 0.88 0.18 0 
0.9 0.18 0 0.92 0.18 0 0.94 0.18 0 
0.96 0.18 0 0.98 0.18 0 1 0.18 0 
0 0.2 0 0.02 0.2 0 0.04 0.2 0 
0.06 0.2 0 0.08 0.2 0 0.1 0.2 0 
0.12 0.2 0 0.14 0.2 0 0.16 0.2 0 
0.18 0.2 0 0.2 0.2 0 0.22 0.2 0 
0.24 0.2 0 0.26 0.2 0 0.28 0.2 0 
0.3 0.2 0 0.32 0.2 0 0.34 0.2 0 
0.36 0.2 0 0.38 0.2 0 0.4 0.2 0 
0.42 0.2 0 0.44 0.2 0 0.46 0.2 0 
0.48 0.2 0 0.5 0.2 0 0.52 0.2 0 
0.54 0.2 0 0.56 0.2 0 0.58 0.2 0 
0.6 0.2 0 0.62 0.2 0 0.64 0.2 0 
0.66 0.2 0 0.68 0.2 0 0.7 0.2 0 
0.72 0.2 0 0.74 0.2 0 0.76 0.2 0 
0.78 0.2 0 0.8 0.2 0 0.82 0.2 0 
0.84 0.2 0 0.86 0.2 0 0.88 0.2 0 
0.9 0.2 0 0.92 0.2 0 0.94 0.2 0 
0.96 0.2 0 0.98 0.2 0 1 0.2 0 
0 0.22 0 0.02 0.22 0 0.04 0.22 0 
0.06 0.22 0 0.08 0.22 0 0.1 0.22 0 
0.12 0.22 0 0.14 0.22 0 0.16 0.22 0 
0.18 0.22 0 0.2 0.22 0 0.22 0.22 0 
0.24 0.22 0 0.26 0.22 0 0.28 0.22 0 
0.3 0.22 0 0.32 0.22 0 0.34 0.22 0 
0.36 0.22 0 0.38 0.22 0 0.4 0.22 0 
0.42 0.22 0 0.44 0.22 0 0.46 0.22 0 
0.48 0.22 0 0.5 0.22 0 0.52 0.22 0 
0.54 0.22 0 0.56 0.22 0 0.58 0.22 0 
0.6 0.22 0 0.62 0.22 0 0.64 0.22 0 
0.66 0.22 0 0.68 0.22 0 0.7 0.22 0 
0.72 0.22 0 0.74 0.22 0 0.76 0.22 0 
0.78 0.22 0 0.8 0.22 0 0.82 0.22 0 
0.84 0.22 0 0.86 0.22 0 0.88 0.22 0 
0.9 0.22 0 0.92 0.22 0 0.94 0.22 0 
0.96 0.22 0 0.98 0.22 0 1 0.22 0 
0 0.24 0 0.02 0.24 0 0.04 0.24 0 
0.06 0.24 0 0.08 0.24 0 0.1 0.24 0 
0.12 0.24 0 0.14 0.24 0 0.16 0.24 0 
0.18 0.24 0 0.2 0.24 0 0.22 0.24 0 
0.24 0.24 0 0.26 0.24 0 0.28 0.24 0 
0.3 0.24 0 0.32 0.24 0 0.34 0.24 0 
0.36 0.24 0 0.38 0.24 0 0.4 0.24 0 
0.42 0.24 0 0.44 0.24 0 0.46 0.24 0 
0.48 0.24 0 0.5 0.24 0 0.52 0.24 0 
0.54 0.24 0 0.56 0.24 0 0.58 0.24 0 
0.6 0.24 0 0.62 0.24 0 0.64 0.24 0 
0.66 0.24 0 0.68 0.24 0 0.7 0.24 0 
0.72 0.24 0 0.74 0.24 0 0.76 0.24 0 
0.78 0.24 0 0.8 0.24 0 0.82 0.24 0 
0.84 0.24 0 0.86 0.24 0 0.88 0.24 0 
0.9 0.24 0 0.92 0.24 0 0.94 0.24 0 
0.96 0.24 0 0.98 0.24 0 1 0.24 0 
0 0.26 0 0.02 0.26 0 0.04 0.26 0 
0.06 0.26 0 0.08 0.26 0 0.1 0.26 0 
0.12 0.26 0 0.14 0.26 0 0.16 0.26 0 
0.18 0.26 0 0.2 0.26 0 0.22 0.26 0 
0.24 0.26 0 0.26 0.26 0 0.28 0.26 0 
0.3 0.26 0 0.32 0.26 0 0.34 0.26 0 
0.36 0.26 0 0.38 0.26 0 0.4 0.26 0 
0.42 0.26 0 0.44 0.26 0 0.46 0.26 0 
0.48 0.26 0 0.5 0.26 0 0.52 0.26 0 
0.54 0.26 0 0.56 0.26 0 0.58 0.26 0 
0.6 0.26 0 0.62 0.26 0 0.64 0.26 0 
0.66 0.26 0 0.68 0.26 0 0.7 0.26 0 
0.72 0.26 0 0.74 0.26 0 0.76 0.26 0 
0.78 0.26 0 0.8 0.26 0 0.82 0.26 0 
0.84 0.26 0 0.86 0.26 0 0.88 0.26 0 
0.9 0.26 0 0.92 0.26 0 0.94 0.26 0 
0.96 0.26 0 0.98 0.26 0 1 0.26 0 
0 0.28 0 0.02 0.28 0 0.04 0.28 0 
0.06 0.28 0 0.08 0.28 0 0.1 0.28 0 
0.12 0.28 0 0.14 0.28 0 0.16 0.28 0 
0.18 0.28 0 0.2 0.28 0 0.22 0.28 0 
0.24 0.28 0 0.26 0.28 0 0.28 0.28 0 
0.3 0.28 0 0.32 0.28 0 0.34 0.28 0 
0.36 0.28 0 0.38 0.28 0 0.4 0.28 0 
0.42 0.28 0 0.44 0.28 0 0.46 0.28 0 
0.48 0.28 0 0.5 0.28 0 0.52 0.28 0 
0.54 0.28 0 0.56 0.28 0 0.58 0.28 0 
0.6 0.28 0 0.62 0.28 0 0.64 0.28 0 
0.66 0.28 0 0.68 0.28 0 0.7 0.28 0 
0.72 0.28 0 0.74 0.28 0 0.76 0.28 0 
0.78 0.28 0 0.8 0.28 0 0.82 0.28 0 
0.84 0.28 0 0.86 0.28 0 0.88 0.28 0 
0.9 0.28 0 0.92 0.28 0 0.94 0.28 0 
0.96 0.28 0 0.98 0.28 0 1 0.28 0 
0 0.3 0 0.02 0.3 0 0.04 0.3 0 
0.06 0.3 0 0.08 0.3 0 0.1 0.3 0 
0.12 0.3 0 0.14 0.3 0 0.16 0.3 0 
0.18 0.3 0 0.2 0.3 0 0.22 0.3 0 
0.24 0.3 0 0.26 0.3 0 0.28 0.3 0 
0.3 0.3 0 0.32 0.3 0 0.34 0.3 0 
0.36 0.3 0 0.38 0.3 0 0.4 0.3 0 
0.42 0.3 0 0.44 0.3 0 0.46 0.3 0 
0.48 0.3 0 0.5 0.3 0 0.52 0.3 0 
0.54 0.3 0 0.56 0.3 0 0.58 0.3 0 
0.6 0.3 0 0.62 0.3 0 0.64 0.3 0 
0.66 0.3 0 0.68 0.3 0 0.7 0.3 0 
0.72 0.3 0 0.74 0.3 0 0.76 0.3 0 
0.78 0.3 0 0.8 0.3 0 0.82 0.3 0 
0.84 0.3 0 0.86 0.3 0 0.88 0.3 0 
0.9 0.3 0 0.92 0.3 0 0.94 0.3 0 
0.96 0.3 0 0.98 0.3 0 1 0.3 0 
0 0.32 0 0.02 0.32 0 0.04 0.32 0 
0.06 0.32 0 0.08 0.32 0 0.1 0.32 0 
0.12 0.32 0 0.14 0.32 0 0.16 0.32 0 
0.18 0.32 0 0.2 0.32 0 0.22 0.32 0 
0.24 0.32 0 0.26 0.32 0 0.28 0.32 0 
0.3 0.32 0 0.32 0.32 0 0.34 0.32 0 
0.36 0.32 0 0.38 0.32 0 0.4 0.32 0 
0.42 0.32 0 0.44 0.32 0 0.46 0.32 0 
0.48 0.32 0 0.5 0.32 0 0.52 0.32 0 
0.54 0.32 0 0.56 0.32 0 0.58 0.32 0 
[...]
CELL_DATA 2500
FIELD FieldData 2
pressure 1 2500 double
0.566383 0.566384 0.566385 0.566386 0.566387 0.566387 0.566388 0.566388 0.566388 
0.566388 0.566389 0.566389 0.566389 0.566389 0.566389 0.566389 0.566389 0.566389 
0.566389 0.56639 0.56639 0.56639 0.56639 0.56639 0.56639 0.56639 0.56639 
0.56639 0.566391 0.566391 0.566391 0.566391 0.566391 0.566391 0.566391 0.566391 
0.566391 0.566392 0.566392 0.566392 0.566392 0.566392 0.566392 0.566393 0.566393 
0.566393 0.566393 0.566394 0.566394 0.566394 0.544386 0.544386 0.544387 0.544387 
0.544388 0.544388 0.544389 0.544389 0.544389 0.544389 0.544389 0.54439 0.54439 
0.54439 0.54439 0.54439 0.54439 0.54439 0.54439 0.54439 0.54439 0.544391 
0.544391 0.544391 0.544391 0.544391 0.544391 0.544391 0.544391 0.544391 0.544391 
0.544391 0.544392 0.544392 0.544392 0.544392 0.544392 0.544392 0.544392 0.544392 
0.544392 0.544393 0.544393 0.544393 0.544393 0.544393 0.544393 0.544394 0.544394 
0.544394 0.522389 0.522388 0.522388 0.522389 0.522389 0.522389 0.522389 0.52239 
0.52239 0.52239 0.52239 0.52239 0.52239 0.522391 0.522391 0.522391 0.522391 
0.522391 0.522391 0.522391 0.522391 0.522391 0.522391 0.522391 0.522392 0.522392 
0.522392 0.522392 0.522392 0.522392 0.522392 0.522392 0.522392 0.522392 0.522392 
0.522392 0.522392 0.522393 0.522393 0.522393 0.522393 0.522393 0.522393 0.522393 
0.522393 0.522394 0.522394 0.522394 0.522394 0.522394 0.50039 0.50039 0.50039 
0.50039 0.50039 0.50039 0.50039 0.500391 0.500391 0.500391 0.500391 0.500391 
0.500391 0.500391 0.500391 0.500392 0.500392 0.500392 0.500392 0.500392 0.500392 
0.500392 0.500392 0.500392 0.500392 0.500392 0.500392 0.500392 0.500393 0.500393 
0.500393 0.500393 0.500393 0.500393 0.500393 0.500393 0.500393 0.500393 0.500393 
0.500393 0.500393 0.500393 0.500394 0.500394 0.500394 0.500394 0.500394 0.500394 
0.500394 0.500394 0.478392 0.478391 0.478391 0.478391 0.478391 0.478391 0.478392 
0.478392 0.478392 0.478392 0.478392 0.478392 0.478392 0.478392 0.478392 0.478392 
0.478392 0.478393 0.478393 0.478393 0.478393 0.478393 0.478393 0.478393 0.478393 
0.478393 0.478393 0.478393 0.478393 0.478393 0.478393 0.478393 0.478393 0.478394 
0.478394 0.478394 0.478394 0.478394 0.478394 0.478394 0.478394 0.478394 0.478394 
0.478394 0.478394 0.478394 0.478394 0.478394 0.478394 0.478394 0.456393 0.456393 
0.456392 0.456392 0.456392 0.456393 0.456393 0.456393 0.456393 0.456393 0.456393 
0.456393 0.456393 0.456393 0.456393 0.456393 0.456393 0.456393 0.456393 0.456394 
0.456394 0.456394 0.456394 0.456394 0.456394 0.456394 0.456394 0.456394 0.456394 
0.456394 0.456394 0.456394 0.456394 0.456394 0.456394 0.456394 0.456394 0.456394 
0.456394 0.456394 0.456394 0.456395 0.456395 0.456395 0.456395 0.456395 0.456395 
0.456395 0.456395 0.456395 0.434394 0.434394 0.434394 0.434394 0.434394 0.434394 
0.434394 0.434394 0.434394 0.434394 0.434394 0.434394 0.434394 0.434394 0.434394 
0.434394 0.434394 0.434394 0.434394 0.434394 0.434394 0.434395 0.434395 0.434395 
0.434395 0.434395 0.434395 0.434395 0.434395 0.434395 0.434395 0.434395 0.434395 
0.434395 0.434395 0.434395 0.434395 0.434395 0.434395 0.434395 0.434395 0.434395 
0.434395 0.434395 0.434395 0.434396 0.434396 0.434396 0.434396 0.434396 0.412395 
0.412395 0.412395 0.412395 0.412395 0.412395 0.412395 0.412395 0.412395 0.412395 
0.412395 0.412395 0.412395 0.412395 0.412395 0.412395 0.412395 0.412395 0.412395 
0.412395 0.412395 0.412396 0.412396 0.412396 0.412396 0.412396 0.412396 0.412396 
0.412396 0.412396 0.412396 0.412396 0.412396 0.412396 0.412396 0.412396 0.412396 
0.412396 0.412396 0.412396 0.412396 0.412396 0.412396 0.412396 0.412396 0.412396 
0.412396 0.412396 0.412396 0.412396 0.390396 0.390396 0.390396 0.390396 0.390396 
0.390396 0.390396 0.390396 0.390396 0.390396 0.390396 0.390396 0.390396 0.390396 
0.390396 0.390396 0.390396 0.390396 0.390396 0.390396 0.390397 0.390397 0.390397 
0.390397 0.390397 0.390397 0.390397 0.390397 0.390397 0.390397 0.390397 0.390397 
0.390397 0.390397 0.390397 0.390397 0.390397 0.390397 0.390397 0.390397 0.390397 
0.390397 0.390397 0.390397 0.390397 0.390397 0.390397 0.390397 0.390397 0.390397 
0.368398 0.368398 0.368398 0.368398 0.368397 0.368397 0.368397 0.368397 0.368397 
0.368397 0.368397 0.368398 0.368398 0.368398 0.368398 0.368398 0.368398 0.368398 
0.368398 0.368398 0.368398 0.368398 0.368398 0.368398 0.368398 0.368398 0.368398 
0.368398 0.368398 0.368398 0.368398 0.368398 0.368398 0.368398 0.368398 0.368398 
0.368398 0.368398 0.368398 0.368398 0.368398 0.368398 0.368398 0.368398 0.368398 
0.368398 0.368398 0.368398 0.368398 0.368398 0.346399 0.346399 0.346399 0.346399 
0.346399 0.346399 0.346399 0.346399 0.346399 0.346399 0.346399 0.346399 0.346399 
0.346399 0.346399 0.346399 0.346399 0.346399 0.346399 0.346399 0.346399 0.346399 
0.346399 0.346399 0.346399 0.346399 0.346399 0.346399 0.346399 0.346399 0.346399 
0.346399 0.346399 0.346399 0.346399 0.346399 0.346399 0.346399 0.346399 0.346399 
0.346399 0.346399 0.346399 0.346399 0.346399 0.346399 0.346399 0.346399 0.346399 
0.346399 0.3244 0.3244 0.3244 0.3244 0.3244 0.3244 0.3244 0.3244 
0.3244 0.3244 0.3244 0.3244 0.3244 0.3244 0.3244 0.3244 0.3244 
0.3244 0.3244 0.3244 0.3244 0.3244 0.3244 0.3244 0.3244 0.3244 
0.3244 0.3244 0.3244 0.3244 0.3244 0.3244 0.3244 0.3244 0.3244 
0.3244 0.3244 0.3244 0.3244 0.3244 0.3244 0.3244 0.3244 0.3244 
0.3244 0.3244 0.324401 0.324401 0.324401 0.3244 0.302402 0.302402 0.302402 
0.302402 0.302402 0.302402 0.302402 0.302402 0.302402 0.302402 0.302402 0.302402 
0.302402 0.302402 0.302402 0.302402 0.302402 0.302402 0.302402 0.302402 0.302402 
0.302402 0.302402 0.302402 0.302402 0.302402 0.302402 0.302402 0.302402 0.302402 
0.302402 0.302402 0.302402 0.302402 0.302402 0.302402 0.302402 0.302402 0.302402 
0.302402 0.302402 0.302402 0.302402 0.302402 0.302402 0.302402 0.302402 0.302402 
0.302402 0.302402 0.280403 0.280403 0.280403 0.280403 0.280403 0.280403 0.280403 
0.280403 0.280403 0.280403 0.280403 0.280403 0.280403 0.280403 0.280403 0.280403 
0.280403 0.280403 0.280403 0.280403 0.280403 0.280403 0.280403 0.280403 0.280403 
0.280403 0.280403 0.280403 0.280403 0.280403 0.280403 0.280403 0.280403 0.280403 
0.280403 0.280403 0.280403 0.280403 0.280403 0.280403 0.280403 0.280403 0.280403 
0.280403 0.280403 0.280403 0.280403 0.280403 0.280403 0.280403 0.258405 0.258405 
0.258405 0.258405 0.258405 0.258405 0.258405 0.258405 0.258405 0.258405 0.258405 
0.258405 0.258405 0.258405 0.258405 0.258405 0.258405 0.258405 0.258405 0.258405 
0.258405 0.258405 0.258405 0.258405 0.258405 0.258405 0.258405 0.258405 0.258405 
0.258405 0.258405 0.258405 0.258405 0.258405 0.258405 0.258405 0.258405 0.258404 
0.258404 0.258404 0.258404 0.258404 0.258404 0.258405 0.258405 0.258405 0.258405 
0.258405 0.258405 0.258405 0.236406 0.236406 0.236406 0.236406 0.236406 0.236406 
0.236406 0.236406 0.236406 0.236406 0.236406 0.236406 0.236406 0.236406 0.236406 
0.236406 0.236406 0.236406 0.236406 0.236406 0.236406 0.236406 0.236406 0.236406 
0.236406 0.236406 0.236406 0.236406 0.236406 0.236406 0.236406 0.236406 0.236406 
0.236406 0.236406 0.236406 0.236406 0.236406 0.236406 0.236406 0.236406 0.236406 
0.236406 0.236406 0.236406 0.236406 0.236406 0.236406 0.236406 0.236406 0.214408 
0.214408 0.214408 0.214408 0.214408 0.214408 0.214408 0.214408 0.214408 0.214408 
0.214408 0.214408 0.214408 0.214408 0.214408 0.214408 0.214408 0.214408 0.214408 
0.214408 0.214408 0.214408 0.214408 0.214408 0.214408 0.214408 0.214408 0.214408 
0.214408 0.214408 0.214408 0.214408 0.214408 0.214408 0.214408 0.214408 0.214408 
0.214408 0.214408 0.214408 0.214408 0.214408 0.214408 0.214408 0.214408 0.214408 
0.214408 0.214408 0.214408 0.214408 0.19241 0.19241 0.19241 0.19241 0.19241 
0.19241 0.19241 0.19241 0.19241 0.19241 0.19241 0.19241 0.19241 0.19241 
0.19241 0.19241 0.19241 0.19241 0.19241 0.19241 0.19241 0.19241 0.19241 
0.19241 0.19241 0.19241 0.19241 0.192409 0.192409 0.192409 0.192409 0.192409 
0.192409 0.192409 0.192409 0.192409 0.192409 0.192409 0.192409 0.192409 0.192409 
0.192409 0.192409 0.192409 0.192409 0.192409 0.192409 0.19241 0.19241 0.192409 
0.170412 0.170412 0.170412 0.170411 0.170411 0.170411 0.170411 0.170411 0.170411 
0.170411 0.170411 0.170411 0.170411 0.170411 0.170411 0.170411 0.170411 0.170411 
0.170411 0.170411 0.170411 0.170411 0.170411 0.170411 0.170411 0.170411 0.170411 
0.170411 0.170411 0.170411 0.170411 0.170411 0.170411 0.170411 0.170411 0.170411 
0.170411 0.170411 0.170411 0.170411 0.170411 0.170411 0.170411 0.170411 0.170411 
0.170411 0.170411 0.170411 0.170411 0.170411 0.148413 0.148413 0.148413 0.148413 
0.148413 0.148413 0.148413 0.148413 0.148413 0.148413 0.148413 0.148413 0.148413 
0.148413 0.148413 0.148413 0.148413 0.148413 0.148413 0.148413 0.148413 0.148413 
0.148413 0.148413 0.148413 0.148413 0.148413 0.148413 0.148413 0.148413 0.148413 
0.148413 0.148413 0.148413 0.148413 0.148413 0.148413 0.148413 0.148413 0.148413 
0.148413 0.148413 0.148413 0.148413 0.148413 0.148413 0.148413 0.148413 0.148413 
0.148413 0.126415 0.126415 0.126415 0.126415 0.126415 0.126415 0.126415 0.126415 
0.126415 0.126415 0.126415 0.126415 0.126415 0.126415 0.126415 0.126415 0.126415 
0.126415 0.126415 0.126415 0.126415 0.126415 0.126415 0.126415 0.126415 0.126415 
0.126415 0.126415 0.126415 0.126415 0.126415 0.126415 0.126415 0.126415 0.126415 
0.126415 0.126415 0.126415 0.126415 0.126415 0.126415 0.126415 0.126415 0.126415 
0.126415 0.126415 0.126415 0.126415 0.126415 0.126415 0.104417 0.104417 0.104417 
0.104417 0.104417 0.104417 0.104417 0.104417 0.104417 0.104417 0.104417 0.104417 
0.104417 0.104417 0.104417 0.104417 0.104417 0.104417 0.104417 0.104417 0.104417 
0.104417 0.104417 0.104417 0.104417 0.104417 0.104417 0.104417 0.104417 0.104417 
0.104417 0.104417 0.104417 0.104417 0.104417 0.104417 0.104417 0.104417 0.104417 
0.104417 0.104417 0.104417 0.104417 0.104417 0.104417 0.104417 0.104417 0.104417 
0.104417 0.104417 0.0824191 0.0824191 0.0824191 0.0824191 0.0824191 0.0824191 0.0824191 
0.0824191 0.0824191 0.0824191 0.0824191 0.0824191 0.0824191 0.0824191 0.0824191 0.0824191 
0.0824191 0.082419 0.082419 0.082419 0.082419 0.082419 0.082419 0.082419 0.082419 
0.082419 0.082419 0.082419 0.082419 0.082419 0.082419 0.082419 0.082419 0.082419 
0.082419 0.082419 0.082419 0.082419 0.082419 0.0824189 0.0824189 0.0824189 0.0824189 
0.0824189 0.0824189 0.0824189 0.082419 0.082419 0.082419 0.082419 0.0604212 0.0604212 
0.0604211 0.0604211 0.0604211 0.0604211 0.0604211 0.0604211 0.0604211 0.0604211 0.0604211 
0.0604211 0.0604211 0.0604211 0.0604211 0.0604211 0.0604211 0.0604211 0.0604211 0.0604211 
0.0604211 0.0604211 0.0604211 0.0604211 0.0604211 0.0604211 0.0604211 0.0604211 0.0604211 
0.0604211 0.0604211 0.0604211 0.060421 0.060421 0.060421 0.060421 0.060421 0.060421 
0.060421 0.060421 0.060421 0.060421 0.060421 0.060421 0.060421 0.060421 0.060421 
0.0604211 0.0604211 0.0604211 0.0384232 0.0384232 0.0384232 0.0384232 0.0384232 0.0384232 
0.0384232 0.0384232 0.0384232 0.0384232 0.0384232 0.0384232 0.0384232 0.0384232 0.0384232 
0.0384232 0.0384232 0.0384232 0.0384232 0.0384232 0.0384232 0.0384232 0.0384232 0.0384232 
0.0384232 0.0384232 0.0384232 0.0384232 0.0384232 0.0384232 0.0384232 0.0384232 0.0384232 
0.0384232 0.0384232 0.0384232 0.0384232 0.0384232 0.0384232 0.0384232 0.0384232 0.0384232 
0.0384231 0.0384231 0.0384231 0.0384232 0.0384232 0.0384232 0.0384232 0.0384232 0.0164254 
0.0164254 0.0164254 0.0164253 0.0164253 0.0164253 0.0164253 0.0164253 0.0164253 0.0164253 
0.0164253 0.0164253 0.0164253 0.0164253 0.0164253 0.0164253 0.0164253 0.0164253 0.0164253 
0.0164253 0.0164253 0.0164253 0.0164253 0.0164253 0.0164254 0.0164254 0.0164254 0.0164254 
0.0164254 0.0164254 0.0164254 0.0164254 0.0164254 0.0164254 0.0164254 0.0164254 0.0164254 
0.0164254 0.0164254 0.0164254 0.0164253 0.0164253 0.0164253 0.0164253 0.0164253 0.0164253 
0.0164254 0.0164254 0.0164254 0.0164254 -0.00557243 -0.00557243 -0.00557244 -0.00557247 -0.00557248 
-0.00557249 -0.00557249 -0.00557249 -0.00557248 -0.00557247 -0.00557247 -0.00557247 -0.00557246 -0.00557246 
-0.00557246 -0.00557246 -0.00557246 -0.00557246 -0.00557245 -0.00557245 -0.00557245 -0.00557244 -0.00557244 
-0.00557244 -0.00557243 -0.00557243 -0.00557243 -0.00557243 -0.00557242 -0.00557242 -0.00557242 -0.00557242 
-0.00557242 -0.00557241 -0.00557241 -0.00557241 -0.0055724 -0.0055724 -0.0055724 -0.0055724 -0.0055724 
-0.00557241 -0.00557241 -0.00557242 -0.00557242 -0.00557241 -0.0055724 -0.00557237 -0.00557235 -0.00557236 
-0.0275702 -0.0275702 -0.0275702 -0.0275702 -0.0275702 -0.0275702 -0.0275702 -0.0275702 -0.0275702 
-0.0275702 -0.0275702 -0.0275702 -0.0275702 -0.0275702 -0.0275702 -0.0275702 -0.0275702 -0.0275702 
-0.0275702 -0.0275702 -0.0275702 -0.0275702 -0.0275702 -0.0275702 -0.0275702 -0.0275702 -0.0275702 
-0.0275702 -0.0275701 -0.0275701 -0.0275701 -0.0275701 -0.0275701 -0.0275701 -0.0275701 -0.0275701 
-0.0275701 -0.0275701 -0.0275701 -0.0275701 -0.0275701 -0.0275701 -0.0275701 -0.0275701 -0.0275701 
-0.0275701 -0.0275701 -0.0275701 -0.0275701 -0.0275701 -0.0495679 -0.0495679 -0.0495679 -0.0495679 
-0.0495679 -0.0495679 -0.0495679 -0.0495679 -0.0495679 -0.0495679 -0.0495679 -0.0495679 -0.0495679 
-0.0495679 -0.0495679 -0.0495679 -0.0495679 -0.0495679 -0.0495679 -0.0495679 -0.0495679 -0.0495679 
-0.0495679 -0.0495679 -0.0495678 -0.0495678 -0.0495678 -0.0495678 -0.0495678 -0.0495678 -0.0495678 
-0.0495678 -0.0495678 -0.0495678 -0.0495678 -0.0495678 -0.0495678 -0.0495678 -0.0495678 -0.0495677 
-0.0495677 -0.0495677 -0.0495677 -0.0495678 -0.0495678 -0.0495678 -0.0495677 -0.0495677 -0.0495677 
-0.0495677 -0.0715655 -0.0715655 -0.0715655 -0.0715655 -0.0715656 -0.0715656 -0.0715656 -0.0715656 
-0.0715656 -0.0715656 -0.0715656 -0.0715655 -0.0715655 -0.0715655 -0.0715655 -0.0715655 -0.0715655 
-0.0715655 -0.0715655 -0.0715655 -0.0715655 -0.0715655 -0.0715655 -0.0715655 -0.0715655 -0.0715655 
-0.0715655 -0.0715654 -0.0715654 -0.0715654 -0.0715654 -0.0715654 -0.0715654 -0.0715654 -0.0715654 
-0.0715654 -0.0715654 -0.0715654 -0.0715653 -0.0715653 -0.0715653 -0.0715653 -0.0715653 -0.0715653 
-0.0715653 -0.0715653 -0.0715653 -0.0715653 -0.0715653 -0.0715653 -0.0935631 -0.0935631 -0.0935631 
-0.0935631 -0.0935631 -0.0935631 -0.0935632 -0.0935632 -0.0935632 -0.0935631 -0.0935631 -0.0935631 
-0.0935631 -0.0935631 -0.0935631 -0.0935631 -0.0935631 -0.0935631 -0.0935631 -0.0935631 -0.0935631 
-0.0935631 -0.0935631 -0.093563 -0.093563 -0.093563 -0.093563 -0.093563 -0.093563 -0.093563 
-0.093563 -0.093563 -0.093563 -0.0935629 -0.0935629 -0.0935629 -0.0935629 -0.0935629 -0.0935629 
-0.0935629 -0.0935629 -0.0935629 -0.0935629 -0.0935629 -0.0935629 -0.0935629 -0.0935629 -0.0935628 
-0.0935628 -0.0935628 -0.115561 -0.115561 -0.115561 -0.115561 -0.115561 -0.115561 -0.115561 
-0.115561 -0.115561 -0.115561 -0.115561 -0.115561 -0.115561 -0.115561 -0.115561 -0.115561 
-0.115561 -0.115561 -0.115561 -0.115561 -0.115561 -0.115561 -0.115561 -0.115561 -0.115561 
-0.115561 -0.115561 -0.115561 -0.11556 -0.11556 -0.11556 -0.11556 -0.11556 -0.11556 
-0.11556 -0.11556 -0.11556 -0.11556 -0.11556 -0.11556 -0.11556 -0.11556 -0.11556 
-0.11556 -0.11556 -0.11556 -0.11556 -0.11556 -0.11556 -0.11556 -0.137558 -0.137558 
-0.137558 -0.137558 -0.137558 -0.137558 -0.137558 -0.137558 -0.137558 -0.137558 -0.137558 
-0.137558 -0.137558 -0.137558 -0.137558 -0.137558 -0.137558 -0.137558 -0.137558 -0.137558 
-0.137558 -0.137558 -0.137558 -0.137558 -0.137558 -0.137558 -0.137558 -0.137558 -0.137558 
-0.137558 -0.137558 -0.137558 -0.137558 -0.137558 -0.137558 -0.137558 -0.137558 -0.137558 
-0.137558 -0.137558 -0.137558 -0.137558 -0.137558 -0.137558 -0.137558 -0.137558 -0.137558 
-0.137558 -0.137558 -0.137558 -0.159555 -0.159555 -0.159555 -0.159555 -0.159555 -0.159555 
-0.159555 -0.159555 -0.159555 -0.159555 -0.159555 -0.159555 -0.159555 -0.159555 -0.159555 
-0.159555 -0.159555 -0.159555 -0.159555 -0.159555 -0.159555 -0.159555 -0.159555 -0.159555 
-0.159555 -0.159555 -0.159555 -0.159555 -0.159555 -0.159555 -0.159555 -0.159555 -0.159555 
-0.159555 -0.159555 -0.159555 -0.159555 -0.159555 -0.159555 -0.159555 -0.159555 -0.159555 
-0.159555 -0.159555 -0.159555 -0.159555 -0.159555 -0.159555 -0.159555 -0.159555 -0.181553 
-0.181553 -0.181553 -0.181553 -0.181553 -0.181553 -0.181553 -0.181553 -0.181553 -0.181553 
-0.181553 -0.181553 -0.181553 -0.181553 -0.181553 -0.181553 -0.181553 -0.181553 -0.181553 
-0.181553 -0.181553 -0.181553 -0.181553 -0.181553 -0.181553 -0.181553 -0.181553 -0.181553 
-0.181553 -0.181553 -0.181553 -0.181553 -0.181553 -0.181553 -0.181553 -0.181553 -0.181553 
-0.181553 -0.181552 -0.181552 -0.181552 -0.181552 -0.181552 -0.181552 -0.181552 -0.181552 
-0.181552 -0.181552 -0.181552 -0.181552 -0.20355 -0.20355 -0.20355 -0.20355 -0.20355 
-0.20355 -0.20355 -0.20355 -0.20355 -0.20355 -0.20355 -0.20355 -0.20355 -0.20355 
-0.20355 -0.20355 -0.20355 -0.20355 -0.20355 -0.20355 -0.20355 -0.20355 -0.20355 
-0.20355 -0.20355 -0.20355 -0.20355 -0.20355 -0.20355 -0.20355 -0.20355 -0.20355 
-0.20355 -0.20355 -0.20355 -0.20355 -0.20355 -0.20355 -0.20355 -0.20355 -0.20355 
-0.20355 -0.20355 -0.20355 -0.20355 -0.20355 -0.20355 -0.20355 -0.20355 -0.20355 
-0.225547 -0.225547 -0.225547 -0.225547 -0.225547 -0.225547 -0.225547 -0.225547 -0.225547 
-0.225547 -0.225547 -0.225547 -0.225547 -0.225547 -0.225547 -0.225547 -0.225547 -0.225547 
-0.225547 -0.225547 -0.225547 -0.225547 -0.225547 -0.225547 -0.225547 -0.225547 -0.225547 
-0.225547 -0.225547 -0.225547 -0.225547 -0.225547 -0.225547 -0.225547 -0.225547 -0.225547 
-0.225547 -0.225547 -0.225547 -0.225547 -0.225547 -0.225547 -0.225547 -0.225547 -0.225547 
-0.225547 -0.225547 -0.225547 -0.225547 -0.225547 -0.247544 -0.247544 -0.247544 -0.247544 
-0.247544 -0.247544 -0.247544 -0.247544 -0.247544 -0.247544 -0.247544 -0.247544 -0.247544 
-0.247544 -0.247544 -0.247544 -0.247544 -0.247544 -0.247544 -0.247544 -0.247544 -0.247544 
-0.247544 -0.247544 -0.247544 -0.247544 -0.247544 -0.247544 -0.247544 -0.247544 -0.247544 
-0.247544 -0.247544 -0.247544 -0.247544 -0.247544 -0.247544 -0.247544 -0.247544 -0.247544 
-0.247544 -0.247544 -0.247544 -0.247544 -0.247544 -0.247544 -0.247544 -0.247544 -0.247544 
-0.247544 -0.269541 -0.269541 -0.269541 -0.269541 -0.269541 -0.269541 -0.269541 -0.269541 
-0.269541 -0.269541 -0.269541 -0.269541 -0.269541 -0.269541 -0.269541 -0.269541 -0.269541 
-0.269541 -0.269541 -0.269541 -0.269541 -0.269541 -0.269541 -0.269541 -0.269541 -0.269541 
-0.269541 -0.269541 -0.269541 -0.269541 -0.269541 -0.269541 -0.269541 -0.269541 -0.269541 
-0.269541 -0.269541 -0.269541 -0.269541 -0.269541 -0.269541 -0.269541 -0.269541 -0.269541 
-0.269541 -0.269541 -0.269541 -0.269541 -0.269541 -0.269541 -0.291538 -0.291538 -0.291538 
-0.291538 -0.291538 -0.291538 -0.291538 -0.291538 -0.291538 -0.291538 -0.291538 -0.291538 
-0.291538 -0.291538 -0.291538 -0.291538 -0.291538 -0.291538 -0.291538 -0.291538 -0.291538 
-0.291538 -0.291538 -0.291538 -0.291538 -0.291538 -0.291538 -0.291538 -0.291538 -0.291538 
-0.291538 -0.291538 -0.291538 -0.291538 -0.291538 -0.291538 -0.291538 -0.291538 -0.291538 
-0.291538 -0.291538 -0.291538 -0.291538 -0.291538 -0.291538 -0.291538 -0.291538 -0.291538 
-0.291538 -0.291538 -0.313534 -0.313534 -0.313534 -0.313534 -0.313534 -0.313535 -0.313535 
-0.313535 -0.313535 -0.313535 -0.313535 -0.313535 -0.313535 -0.313535 -0.313535 -0.313535 
-0.313535 -0.313535 -0.313535 -0.313535 -0.313535 -0.313535 -0.313535 -0.313535 -0.313535 
-0.313535 -0.313535 -0.313535 -0.313535 -0.313535 -0.313535 -0.313535 -0.313535 -0.313535 
-0.313535 -0.313535 -0.313535 -0.313535 -0.313535 -0.313535 -0.313535 -0.313535 -0.313535 
-0.313535 -0.313535 -0.313535 -0.313535 -0.313535 -0.313535 -0.313535 -0.335531 -0.335531 
-0.335531 -0.335531 -0.335531 -0.335531 -0.335531 -0.335531 -0.335531 -0.335531 -0.335531 
-0.335531 -0.335531 -0.335531 -0.335531 -0.335531 -0.335531 -0.335531 -0.335531 -0.335531 
-0.335531 -0.335531 -0.335531 -0.335531 -0.335532 -0.335532 -0.335532 -0.335532 -0.335532 