# vtk DataFile Version 4.0
vtk output
ASCII
DATASET STRUCTURED_GRID
DIMENSIONS 86 19 1
POINTS 1634 float
0 0 0 0.1 0 0 0.2 0 0 
0.3 0 0 0.4 0 0 0.5 0 0 
0.6 0 0 0.7 0 0 0.8 0 0 
0.9 0 0 1 0 0 1.1 0 0 
1.2 0 0 1.3 0 0 1.4 0 0 
1.5 0 0 1.6 0 0 1.7 0 0 
1.8 0 0 1.9 0 0 2 0 0 
2.1 0 0 2.2 0 0 2.3 0 0 
2.4 0 0 2.5 0 0 2.6 0 0 
2.7 0 0 2.8 0 0 2.9 0 0 
3 0 0 3.1 0 0 3.2 0 0 
3.3 0 0 3.4 0 0 3.5 0 0 
3.6 0 0 3.7 0 0 3.8 0 0 
3.9 0 0 4 0 0 4.1 0 0 
4.2 0 0 4.3 0 0 4.4 0 0 
4.5 0 0 4.6 0 0 4.7 0 0 
4.8 0 0 4.9 0 0 5 0 0 
5.1 0 0 5.2 0 0 5.3 0 0 
5.4 0 0 5.5 0 0 5.6 0 0 
5.7 0 0 5.8 0 0 5.9 0 0 
6 0 0 6.1 0 0 6.2 0 0 
6.3 0 0 6.4 0 0 6.5 0 0 
6.6 0 0 6.7 0 0 6.8 0 0 
6.9 0 0 7 0 0 7.1 0 0 
7.2 0 0 7.3 0 0 7.4 0 0 
7.5 0 0 7.6 0 0 7.7 0 0 
7.8 0 0 7.9 0 0 8 0 0 
8.1 0 0 8.2 0 0 8.3 0 0 
8.4 0 0 8.5 0 0 0 0.0555556 0 
0.1 0.0555556 0 0.2 0.0555556 0 0.3 0.0555556 0 
0.4 0.0555556 0 0.5 0.0555556 0 0.6 0.0555556 0 
0.7 0.0555556 0 0.8 0.0555556 0 0.9 0.0555556 0 
1 0.0555556 0 1.1 0.0555556 0 1.2 0.0555556 0 
1.3 0.0555556 0 1.4 0.0555556 0 1.5 0.0555556 0 
1.6 0.0555556 0 1.7 0.0555556 0 1.8 0.0555556 0 
1.9 0.0555556 0 2 0.0555556 0 2.1 0.0555556 0 
2.2 0.0555556 0 2.3 0.0555556 0 2.4 0.0555556 0 
2.5 0.0555556 0 2.6 0.0555556 0 2.7 0.0555556 0 
2.8 0.0555556 0 2.9 0.0555556 0 3 0.0555556 0 
3.1 0.0555556 0 3.2 0.0555556 0 3.3 0.0555556 0 
3.4 0.0555556 0 3.5 0.0555556 0 3.6 0.0555556 0 
3.7 0.0555556 0 3.8 0.0555556 0 3.9 0.0555556 0 
4 0.0555556 0 4.1 0.0555556 0 4.2 0.0555556 0 
4.3 0.0555556 0 4.4 0.0555556 0 4.5 0.0555556 0 
4.6 0.0555556 0 4.7 0.0555556 0 4.8 0.0555556 0 
4.9 0.0555556 0 5 0.0555556 0 5.1 0.0555556 0 
5.2 0.0555556 0 5.3 0.0555556 0 5.4 0.0555556 0 
5.5 0.0555556 0 5.6 0.0555556 0 5.7 0.0555556 0 
5.8 0.0555556 0 5.9 0.0555556 0 6 0.0555556 0 
6.1 0.0555556 0 6.2 0.0555556 0 6.3 0.0555556 0 
6.4 0.0555556 0 6.5 0.0555556 0 6.6 0.0555556 0 
6.7 0.0555556 0 6.8 0.0555556 0 6.9 0.0555556 0 
7 0.0555556 0 7.1 0.0555556 0 7.2 0.0555556 0 
7.3 0.0555556 0 7.4 0.0555556 0 7.5 0.0555556 0 
7.6 0.0555556 0 7.7 0.0555556 0 7.8 0.0555556 0 
7.9 0.0555556 0 8 0.0555556 0 8.1 0.0555556 0 
8.2 0.0555556 0 8.3 0.0555556 0 8.4 0.0555556 0 
8.5 0.0555556 0 0 0.111111 0 0.1 0.111111 0 
0.2 0.111111 0 0.3 0.111111 0 0.4 0.111111 0 
0.5 0.111111 0 0.6 0.111111 0 0.7 0.111111 0 
0.8 0.111111 0 0.9 0.111111 0 1 0.111111 0 
1.1 0.111111 0 1.2 0.111111 0 1.3 0.111111 0 
1.4 0.111111 0 1.5 0.111111 0 1.6 0.111111 0 
1.7 0.111111 0 1.8 0.111111 0 1.9 0.111111 0 
2 0.111111 0 2.1 0.111111 0 2.2 0.111111 0 
2.3 0.111111 0 2.4 0.111111 0 2.5 0.111111 0 
2.6 0.111111 0 2.7 0.111111 0 2.8 0.111111 0 
2.9 0.111111 0 3 0.111111 0 3.1 0.111111 0 
3.2 0.111111 0 3.3 0.111111 0 3.4 0.111111 0 
3.5 0.111111 0 3.6 0.111111 0 3.7 0.111111 0 
3.8 0.111111 0 3.9 0.111111 0 4 0.111111 0 
4.1 0.111111 0 4.2 0.111111 0 4.3 0.111111 0 
4.4 0.111111 0 4.5 0.111111 0 4.6 0.111111 0 
4.7 0.111111 0 4.8 0.111111 0 4.9 0.111111 0 
5 0.111111 0 5.1 0.111111 0 5.2 0.111111 0 
5.3 0.111111 0 5.4 0.111111 0 5.5 0.111111 0 
5.6 0.111111 0 5.7 0.111111 0 5.8 0.111111 0 
5.9 0.111111 0 6 0.111111 0 6.1 0.111111 0 
6.2 0.111111 0 6.3 0.111111 0 6.4 0.111111 0 
6.5 0.111111 0 6.6 0.111111 0 6.7 0.111111 0 
6.8 0.111111 0 6.9 0.111111 0 7 0.111111 0 
7.1 0.111111 0 7.2 0.111111 0 7.3 0.111111 0 
7.4 0.111111 0 7.5 0.111111 0 7.6 0.111111 0 
7.7 0.111111 0 7.8 0.111111 0 7.9 0.111111 0 
8 0.111111 0 8.1 0.111111 0 8.2 0.111111 0 
8.3 0.111111 0 8.4 0.111111 0 8.5 0.111111 0 
0 0.166667 0 0.1 0.166667 0 0.2 0.166667 0 
0.3 0.166667 0 0.4 0.166667 0 0.5 0.166667 0 
0.6 0.166667 0 0.7 0.166667 0 0.8 0.166667 0 
0.9 0.166667 0 1 0.166667 0 1.1 0.166667 0 
1.2 0.166667 0 1.3 0.166667 0 1.4 0.166667 0 
1.5 0.166667 0 1.6 0.166667 0 1.7 0.166667 0 
1.8 0.166667 0 1.9 0.166667 0 2 0.166667 0 
2.1 0.166667 0 2.2 0.166667 0 2.3 0.166667 0 
2.4 0.166667 0 2.5 0.166667 0 2.6 0.166667 0 
2.7 0.166667 0 2.8 0.166667 0 2.9 0.166667 0 
3 0.166667 0 3.1 0.166667 0 3.2 0.166667 0 
3.3 0.166667 0 3.4 0.166667 0 3.5 0.166667 0 
3.6 0.166667 0 3.7 0.166667 0 3.8 0.166667 0 
3.9 0.166667 0 4 0.166667 0 4.1 0.166667 0 
4.2 0.166667 0 4.3 0.166667 0 4.4 0.166667 0 
4.5 0.166667 0 4.6 0.166667 0 4.7 0.166667 0 
4.8 0.166667 0 4.9 0.166667 0 5 0.166667 0 
5.1 0.166667 0 5.2 0.166667 0 5.3 0.166667 0 
5.4 0.166667 0 5.5 0.166667 0 5.6 0.166667 0 
5.7 0.166667 0 5.8 0.166667 0 5.9 0.166667 0 
6 0.166667 0 6.1 0.166667 0 6.2 0.166667 0 
6.3 0.166667 0 6.4 0.166667 0 6.5 0.166667 0 
6.6 0.166667 0 6.7 0.166667 0 6.8 0.166667 0 
6.9 0.166667 0 7 0.166667 0 7.1 0.166667 0 
7.2 0.166667 0 7.3 0.166667 0 7.4 0.166667 0 
7.5 0.166667 0 7.6 0.166667 0 7.7 0.166667 0 
7.8 0.166667 0 7.9 0.166667 0 8 0.166667 0 
8.1 0.166667 0 8.2 0.166667 0 8.3 0.166667 0 
8.4 0.166667 0 8.5 0.166667 0 0 0.222222 0 
0.1 0.222222 0 0.2 0.222222 0 0.3 0.222222 0 
0.4 0.222222 0 0.5 0.222222 0 0.6 0.222222 0 
0.7 0.222222 0 0.8 0.222222 0 0.9 0.222222 0 
1 0.222222 0 1.1 0.222222 0 1.2 0.222222 0 
1.3 0.222222 0 1.4 0.222222 0 1.5 0.222222 0 
1.6 0.222222 0 1.7 0.222222 0 1.8 0.222222 0 
1.9 0.222222 0 2 0.222222 0 2.1 0.222222 0 
2.2 0.222222 0 2.3 0.222222 0 2.4 0.222222 0 
2.5 0.222222 0 2.6 0.222222 0 2.7 0.222222 0 
2.8 0.222222 0 2.9 0.222222 0 3 0.222222 0 
3.1 0.222222 0 3.2 0.222222 0 3.3 0.222222 0 
3.4 0.222222 0 3.5 0.222222 0 3.6 0.222222 0 
3.7 0.222222 0 3.8 0.222222 0 3.9 0.222222 0 
4 0.222222 0 4.1 0.222222 0 4.2 0.222222 0 
4.3 0.222222 0 4.4 0.222222 0 4.5 0.222222 0 
4.6 0.222222 0 4.7 0.222222 0 4.8 0.222222 0 
4.9 0.222222 0 5 0.222222 0 5.1 0.222222 0 
5.2 0.222222 0 5.3 0.222222 0 5.4 0.222222 0 
5.5 0.222222 0 5.6 0.222222 0 5.7 0.222222 0 
5.8 0.222222 0 5.9 0.222222 0 6 0.222222 0 
6.1 0.222222 0 6.2 0.222222 0 6.3 0.222222 0 
6.4 0.222222 0 6.5 0.222222 0 6.6 0.222222 0 
6.7 0.222222 0 6.8 0.222222 0 6.9 0.222222 0 
7 0.222222 0 7.1 0.222222 0 7.2 0.222222 0 
7.3 0.222222 0 7.4 0.222222 0 7.5 0.222222 0 
7.6 0.222222 0 7.7 0.222222 0 7.8 0.222222 0 
7.9 0.222222 0 8 0.222222 0 8.1 0.222222 0 
8.2 0.222222 0 8.3 0.222222 0 8.4 0.222222 0 
8.5 0.222222 0 0 0.277778 0 0.1 0.277778 0 
0.2 0.277778 0 0.3 0.277778 0 0.4 0.277778 0 
0.5 0.277778 0 0.6 0.277778 0 0.7 0.277778 0 
0.8 0.277778 0 0.9 0.277778 0 1 0.277778 0 
1.1 0.277778 0 1.2 0.277778 0 1.3 0.277778 0 
1.4 0.277778 0 1.5 0.277778 0 1.6 0.277778 0 
1.7 0.277778 0 1.8 0.277778 0 1.9 0.277778 0 
2 0.277778 0 2.1 0.277778 0 2.2 0.277778 0 
2.3 0.277778 0 2.4 0.277778 0 2.5 0.277778 0 
2.6 0.277778 0 2.7 0.277778 0 2.8 0.277778 0 
2.9 0.277778 0 3 0.277778 0 3.1 0.277778 0 
3.2 0.277778 0 3.3 0.277778 0 3.4 0.277778 0 
3.5 0.277778 0 3.6 0.277778 0 3.7 0.277778 0 
3.8 0.277778 0 3.9 0.277778 0 4 0.277778 0 
4.1 0.277778 0 4.2 0.277778 0 4.3 0.277778 0 
4.4 0.277778 0 4.5 0.277778 0 4.6 0.277778 0 
4.7 0.277778 0 4.8 0.277778 0 4.9 0.277778 0 
5 0.277778 0 5.1 0.277778 0 5.2 0.277778 0 
5.3 0.277778 0 5.4 0.277778 0 5.5 0.277778 0 
5.6 0.277778 0 5.7 0.277778 0 5.8 0.277778 0 
5.9 0.277778 0 6 0.277778 0 6.1 0.277778 0 
6.2 0.277778 0 6.3 0.277778 0 6.4 0.277778 0 
6.5 0.277778 0 6.6 0.277778 0 6.7 0.277778 0 
6.8 0.277778 0 6.9 0.277778 0 7 0.277778 0 
7.1 0.277778 0 7.2 0.277778 0 7.3 0.277778 0 
7.4 0.277778 0 7.5 0.277778 0 7.6 0.277778 0 
7.7 0.277778 0 7.8 0.277778 0 7.9 0.277778 0 
8 0.277778 0 8.1 0.277778 0 8.2 0.277778 0 
8.3 0.277778 0 8.4 0.277778 0 8.5 0.277778 0 
0 0.333333 0 0.1 0.333333 0 0.2 0.333333 0 
0.3 0.333333 0 0.4 0.333333 0 0.5 0.333333 0 
0.6 0.333333 0 0.7 0.333333 0 0.8 0.333333 0 
0.9 0.333333 0 1 0.333333 0 1.1 0.333333 0 
1.2 0.333333 0 1.3 0.333333 0 1.4 0.333333 0 
1.5 0.333333 0 1.6 0.333333 0 1.7 0.333333 0 
1.8 0.333333 0 1.9 0.333333 0 2 0.333333 0 
2.1 0.333333 0 2.2 0.333333 0 2.3 0.333333 0 
2.4 0.333333 0 2.5 0.333333 0 2.6 0.333333 0 
2.7 0.333333 0 2.8 0.333333 0 2.9 0.333333 0 
3 0.333333 0 3.1 0.333333 0 3.2 0.333333 0 
3.3 0.333333 0 3.4 0.333333 0 3.5 0.333333 0 
3.6 0.333333 0 3.7 0.333333 0 3.8 0.333333 0 
3.9 0.333333 0 4 0.333333 0 4.1 0.333333 0 
4.2 0.333333 0 4.3 0.333333 0 4.4 0.333333 0 
4.5 0.333333 0 4.6 0.333333 0 4.7 0.333333 0 
4.8 0.333333 0 4.9 0.333333 0 5 0.333333 0 
5.1 0.333333 0 5.2 0.333333 0 5.3 0.333333 0 
5.4 0.333333 0 5.5 0.333333 0 5.6 0.333333 0 
5.7 0.333333 0 5.8 0.333333 0 5.9 0.333333 0 
6 0.333333 0 6.1 0.333333 0 6.2 0.333333 0 
6.3 0.333333 0 6.4 0.333333 0 6.5 0.333333 0 
6.6 0.333333 0 6.7 0.333333 0 6.8 0.333333 0 
6.9 0.333333 0 7 0.333333 0 7.1 0.333333 0 
7.2 0.333333 0 7.3 0.333333 0 7.4 0.333333 0 
7.5 0.333333 0 7.6 0.333333 0 7.7 0.333333 0 
7.8 0.333333 0 7.9 0.333333 0 8 0.333333 0 
8.1 0.333333 0 8.2 0.333333 0 8.3 0.333333 0 
8.4 0.333333 0 8.5 0.333333 0 0 0.388889 0 
0.1 0.388889 0 0.2 0.388889 0 0.3 0.388889 0 
0.4 0.388889 0 0.5 0.388889 0 0.6 0.388889 0 
0.7 0.388889 0 0.8 0.388889 0 0.9 0.388889 0 
1 0.388889 0 1.1 0.388889 0 1.2 0.388889 0 
1.3 0.388889 0 1.4 0.388889 0 1.5 0.388889 0 
1.6 0.388889 0 1.7 0.388889 0 1.8 0.388889 0 
1.9 0.388889 0 2 0.388889 0 2.1 0.388889 0 
2.2 0.388889 0 2.3 0.388889 0 2.4 0.388889 0 
2.5 0.388889 0 2.6 0.388889 0 2.7 0.388889 0 
2.8 0.388889 0 2.9 0.388889 0 3 0.388889 0 
3.1 0.388889 0 3.2 0.388889 0 3.3 0.388889 0 
3.4 0.388889 0 3.5 0.388889 0 3.6 0.388889 0 
3.7 0.388889 0 3.8 0.388889 0 3.9 0.388889 0 
4 0.388889 0 4.1 0.388889 0 4.2 0.388889 0 
4.3 0.388889 0 4.4 0.388889 0 4.5 0.388889 0 
4.6 0.388889 0 4.7 0.388889 0 4.8 0.388889 0 
4.9 0.388889 0 5 0.388889 0 5.1 0.388889 0 
5.2 0.388889 0 5.3 0.388889 0 5.4 0.388889 0 
5.5 0.388889 0 5.6 0.388889 0 5.7 0.388889 0 
5.8 0.388889 0 5.9 0.388889 0 6 0.388889 0 
6.1 0.388889 0 6.2 0.388889 0 6.3 0.388889 0 
6.4 0.388889 0 6.5 0.388889 0 6.6 0.388889 0 
6.7 0.388889 0 6.8 0.388889 0 6.9 0.388889 0 
7 0.388889 0 7.1 0.388889 0 7.2 0.388889 0 
7.3 0.388889 0 7.4 0.388889 0 7.5 0.388889 0 
7.6 0.388889 0 7.7 0.388889 0 7.8 0.388889 0 
7.9 0.388889 0 8 0.388889 0 8.1 0.388889 0 
8.2 0.388889 0 8.3 0.388889 0 8.4 0.388889 0 
[...]
CELL_DATA 1530
FIELD FieldData 2
pressure 1 1530 double
0.104847 0.104861 0.104896 0.104936 0.104972 0.105002 0.105025 0.105035 0.105027 
0.105006 0.104977 0.104941 0.104898 0.104853 0.104834 0.10486 0.104906 0.104947 
0.104982 0.10501 0.105032 0.105043 0.105035 0.105015 0.104989 0.104958 0.104922 
0.104878 0.104836 0.104824 0.104855 0.104902 0.104943 0.104977 0.105006 0.105033 
0.105051 0.105056 0.105043 0.105019 0.10499 0.104956 0.104915 0.104868 0.10483 
0.104835 0.104877 0.104925 0.104966 0.104999 0.105028 0.10505 0.105058 0.105046 
0.105021 0.104989 0.104951 0.104905 0.104855 0.104827 0.104847 0.104896 0.104946 
0.104987 0.105021 0.105047 0.105059 0.105049 0.105024 0.104989 0.104945 0.104894 
0.104843 0.104823 0.10485 0.1049 0.104947 0.104986 0.105014 0.105027 0.105019 
0.10499 0.104948 0.104906 0.104889 0.0945421 0.094552 0.0945805 0.0946133 0.0946433 
0.0946685 0.0946869 0.0946947 0.0946881 0.0946709 0.0946466 0.0946165 0.0945809 0.0945462 
0.0945319 0.0945515 0.0945874 0.094622 0.094651 0.0946751 0.0946932 0.0947015 0.0946957 
0.0946795 0.0946572 0.0946309 0.0946 0.0945641 0.094531 0.0945216 0.0945458 0.0945832 
0.094618 0.0946474 0.0946729 0.0946946 0.0947096 0.0947131 0.0947027 0.0946831 0.0946583 
0.0946292 0.094595 0.0945567 0.0945278 0.0945312 0.0945639 0.0946029 0.0946371 0.094666 
0.0946902 0.0947075 0.0947134 0.094704 0.0946837 0.0946569 0.0946246 0.0945865 0.0945472 
0.0945256 0.0945413 0.09458 0.0946204 0.0946551 0.0946837 0.0947047 0.0947139 0.0947062 
0.0946855 0.0946562 0.09462 0.0945778 0.094538 0.094522 0.0945434 0.0945826 0.0946213 
0.0946533 0.0946764 0.0946871 0.0946811 0.0946587 0.094626 0.0945941 0.0945814 0.0842187 
0.0842238 0.0842443 0.0842688 0.0842914 0.0843105 0.0843245 0.0843305 0.0843254 0.084312 
0.0842931 0.0842701 0.0842437 0.0842186 0.0842083 0.0842224 0.0842486 0.0842745 0.0842968 
0.0843156 0.0843297 0.084336 0.0843315 0.0843188 0.0843013 0.0842806 0.0842567 0.0842298 
0.0842056 0.0841989 0.0842165 0.0842442 0.0842707 0.0842938 0.0843139 0.0843309 0.0843425 
0.0843451 0.0843369 0.0843215 0.0843021 0.0842794 0.0842532 0.0842249 0.084204 0.0842065 
0.0842302 0.084259 0.0842851 0.0843076 0.0843265 0.08434 0.0843444 0.0843369 0.0843211 
0.0843002 0.0842754 0.0842469 0.0842183 0.0842027 0.0842142 0.0842424 0.0842723 0.0842987 
0.0843209 0.0843373 0.0843445 0.0843385 0.0843222 0.0842994 0.0842719 0.0842406 0.0842115 
0.0842 0.0842156 0.0842444 0.0842734 0.0842979 0.0843162 0.084325 0.0843211 0.0843054 
0.0842829 0.0842612 0.0842541 0.0738795 0.0738804 0.0738933 0.0739096 0.0739252 0.073939 
0.07395 0.073955 0.0739508 0.07394 0.0739258 0.0739096 0.0738919 0.0738757 0.073869 
0.0738781 0.0738952 0.0739127 0.0739287 0.0739428 0.0739539 0.0739591 0.0739551 0.0739448 
0.0739312 0.0739159 0.073899 0.0738808 0.0738649 0.0738606 0.0738721 0.0738905 0.0739089 
0.0739256 0.0739407 0.0739539 0.0739635 0.0739656 0.0739585 0.0739462 0.0739314 0.0739149 
0.0738968 0.073878 0.0738644 0.073866 0.0738814 0.0739005 0.0739187 0.0739351 0.0739496 
0.0739606 0.0739643 0.0739579 0.0739452 0.0739294 0.0739117 0.0738924 0.0738737 0.0738637 
0.0738712 0.0738896 0.0739098 0.0739284 0.0739451 0.0739582 0.0739643 0.0739593 0.0739462 
0.073929 0.0739093 0.0738882 0.0738693 0.0738621 0.0738725 0.0738917 0.0739117 0.0739297 
0.073944 0.0739519 0.0739499 0.0739393 0.0739253 0.0739127 0.0739105 0.0635283 0.0635266 
0.0635333 0.0635429 0.063553 0.0635631 0.0635722 0.0635769 0.0635731 0.0635639 0.0635531 
0.0635422 0.0635316 0.0635226 0.063519 0.0635239 0.0635335 0.0635442 0.0635551 0.0635657 
0.0635751 0.0635797 0.0635759 0.0635667 0.0635559 0.0635449 0.0635337 0.0635228 0.0635139 
0.0635115 0.0635178 0.0635285 0.06354 0.0635514 0.0635626 0.0635734 0.063582 0.0635838 
0.0635772 0.0635667 0.0635554 0.063544 0.0635325 0.0635215 0.063514 0.0635148 0.0635233 
0.0635345 0.0635463 0.063558 0.0635694 0.0635789 0.0635824 0.0635765 0.0635657 0.0635537 
0.0635416 0.0635297 0.0635191 0.0635137 0.0635179 0.0635283 0.0635405 0.0635532 0.0635657 
0.0635768 0.0635824 0.063578 0.063567 0.0635538 0.0635403 0.0635273 0.0635167 0.0635131 
0.0635193 0.0635307 0.0635436 0.0635565 0.0635683 0.0635758 0.0635753 0.0635681 0.0635599 
0.0635542 0.0635552 0.0531691 0.0531662 0.0531684 0.0531732 0.0531794 0.053187 0.0531953 
0.0531998 0.0531962 0.053188 0.0531798 0.0531727 0.0531671 0.0531634 0.0531621 0.0531638 
0.053168 0.0531738 0.0531809 0.0531891 0.0531974 0.0532016 0.0531977 0.0531891 0.0531803 
0.0531726 0.0531658 0.0531603 0.0531565 0.0531555 0.0531579 0.0531628 0.0531692 0.0531766 
0.0531848 0.0531939 0.053202 0.0532037 0.0531972 0.053188 0.0531793 0.0531716 0.053165 
0.0531598 0.0531569 0.0531571 0.0531605 0.0531659 0.0531729 0.0531811 0.0531903 0.053199 
0.0532023 0.0531967 0.0531873 0.053178 0.05317 0.0531635 0.0531588 0.0531568 0.0531584 
0.053163 0.0531695 0.0531778 0.0531873 0.0531969 0.0532023 0.0531984 0.0531887 0.0531785 
0.0531696 0.0531625 0.0531579 0.0531571 0.0531602 0.0531658 0.0531735 0.0531828 0.0531926 
0.0532001 0.0532007 0.0531955 0.0531909 0.0531895 0.0531922 0.0428053 0.0428022 0.0428015 
0.042803 0.0428065 0.0428125 0.0428201 0.0428246 0.0428212 0.0428138 0.0428075 0.0428032 
0.0428011 0.0428009 0.0428012 0.0428007 0.0428011 0.0428036 0.0428081 0.0428143 0.0428216 
0.0428255 0.0428215 0.0428136 0.0428065 0.0428012 0.0427976 0.0427958 0.0427956 0.0427957 
0.0427952 0.0427961 0.0427989 0.0428033 0.0428092 0.0428168 0.0428244 0.042826 0.0428197 
0.0428116 0.042805 0.0428001 0.042797 0.0427957 0.042796 0.0427958 0.0427956 0.0427972 
0.0428008 0.0428062 0.0428136 0.0428216 0.0428247 0.0428194 0.0428111 0.0428041 0.0427992 
0.0427963 0.0427956 0.042796 0.0427959 0.0427964 0.0427991 0.042804 0.0428112 0.0428196 
0.0428248 0.0428212 0.0428127 0.0428049 0.0427993 0.0427963 0.042796 0.0427971 0.0427979 
0.0427996 0.0428036 0.04281 0.0428183 0.0428256 0.0428268 0.0428229 0.0428204 0.0428214 
0.0428246 0.0324394 0.0324367 0.0324341 0.0324334 0.0324352 0.0324398 0.0324467 0.032451 
0.0324479 0.0324415 0.0324368 0.0324346 0.0324348 0.0324371 0.0324384 0.0324364 0.0324342 
0.0324344 0.0324368 0.0324415 0.0324479 0.0324513 0.0324474 0.0324402 0.0324347 0.0324315 
0.0324302 0.0324309 0.0324333 0.032434 0.0324316 0.0324296 0.03243 0.0324321 0.032436 
0.0324422 0.032449 0.0324504 0.0324446 0.0324376 0.0324329 0.0324303 0.0324295 0.032431 
0.0324335 0.0324331 0.0324304 0.0324293 0.0324305 0.0324337 0.0324394 0.0324465 0.0324494 
0.0324446 0.0324375 0.0324324 0.0324298 0.0324294 0.0324315 0.0324336 0.0324322 0.0324299 
0.0324299 0.0324324 0.0324375 0.0324447 0.0324495 0.0324464 0.0324391 0.0324333 0.0324303 
0.0324302 0.0324329 0.0324352 0.0324343 0.0324333 0.0324345 0.0324386 0.0324454 0.0324523 
0.0324539 0.0324507 0.0324493 0.0324517 0.0324546 0.0220732 0.0220712 0.0220673 0.0220651 
0.0220655 0.0220688 0.0220748 0.0220788 0.0220762 0.0220708 0.0220676 0.022067 0.0220689 
0.022073 0.0220751 0.022072 0.022068 0.0220664 0.0220673 0.0220704 0.0220757 0.0220786 
0.022075 0.0220689 0.0220651 0.0220636 0.022064 0.0220666 0.0220709 0.0220721 0.0220682 
0.0220641 0.0220625 0.022063 0.0220651 0.0220698 0.0220756 0.0220768 0.0220716 0.022066 
0.022063 0.0220621 0.0220632 0.0220667 0.0220709 0.0220704 0.0220658 0.0220627 0.0220621 
0.0220636 0.0220676 0.0220736 0.0220761 0.0220719 0.0220661 0.0220628 0.022062 0.0220636 
0.0220678 0.022071 0.0220687 0.0220644 0.0220623 0.0220629 0.0220661 0.022072 0.0220762 
0.0220736 0.0220676 0.0220638 0.0220628 0.022065 0.0220698 0.0220729 0.0220708 0.0220675 
0.0220667 0.0220688 0.022074 0.02208 0.0220816 0.022079 0.0220783 0.0220812 0.0220835 
0.011708 0.0117068 0.011702 0.0116984 0.0116975 0.0116996 0.0117043 0.0117076 0.0117056 
0.0117016 0.0116999 0.0117007 0.0117041 0.0117096 0.0117121 0.0117083 0.0117029 0.0116998 
0.0116992 0.0117009 0.0117047 0.011707 0.011704 0.0116994 0.0116973 0.0116974 0.0116993 
0.0117035 0.0117092 0.0117108 0.0117059 0.0117001 0.0116969 0.0116957 0.0116963 0.0116992 
0.0117036 0.0117045 0.0117004 0.0116965 0.0116951 0.0116958 0.0116985 0.0117038 0.0117091 
0.0117085 0.0117027 0.0116978 0.0116955 0.0116954 0.0116977 0.0117022 0.0117043 0.0117009 
0.0116968 0.0116952 0.0116961 0.0116994 0.0117052 0.0117092 0.0117063 0.0117004 0.0116965 
0.0116953 0.0116967 0.0117009 0.0117043 0.0117023 0.0116981 0.0116962 0.0116971 0.0117013 
0.0117077 0.0117112 0.011708 0.011703 0.0117003 0.0117005 0.0117038 0.0117085 0.0117098 
0.0117076 0.0117075 0.0117106 0.0117122 0.00134486 0.00134428 0.00133873 0.00133383 0.0013314 
0.00133171 0.00133454 0.00133689 0.00133565 0.00133347 0.00133345 0.00133586 0.00134073 0.00134717 
0.00135009 0.00134585 0.00133925 0.00133462 0.00133237 0.00133236 0.00133444 0.00133583 0.0013338 
0.00133127 0.00133106 0.00133286 0.00133642 0.00134218 0.00134886 0.00135073 0.00134528 0.00133818 
0.00133318 0.00133028 0.00132909 0.00132995 0.00133245 0.00133295 0.00133034 0.0013285 0.00132904 
0.00133145 0.00133586 0.00134258 0.00134878 0.0013481 0.00134134 0.00133491 0.00133093 0.00132905 
0.00132938 0.00133186 0.00133319 0.00133109 0.00132901 0.00132939 0.00133206 0.00133714 0.00134427 
0.00134883 0.00134556 0.00133831 0.00133265 0.00132954 0.00132896 0.001331 0.00133321 0.00133215 
0.00133009 0.00133032 0.0013334 0.00133943 0.00134712 0.00135066 0.00134652 0.00133997 0.0013354 
0.0013335 0.00133448 0.00133724 0.00133808 0.00133649 0.00133705 0.00134034 0.00134119 -0.00901558 
-0.00901585 -0.00902214 -0.00902856 -0.00903302 -0.00903516 -0.00903507 -0.00903429 -0.00903443 -0.00903418 
-0.00903192 -0.00902749 -0.00902105 -0.00901377 -0.00901058 -0.0090151 -0.00902262 -0.00902892 -0.00903324 
-0.00903557 -0.00903595 -0.00903581 -0.00903639 -0.00903613 -0.00903382 -0.00902981 -0.00902431 -0.00901708 
-0.00900967 -0.00900756 -0.00901334 -0.00902151 -0.00902831 -0.00903333 -0.00903688 -0.00903867 -0.00903877 
-0.00903883 -0.00903931 -0.00903837 -0.00903538 -0.00903075 -0.00902441 -0.0090164 -0.00900965 -0.00901037 
-0.00901777 -0.00902566 -0.00903169 -0.00903588 -0.00903812 -0.00903834 -0.00903808 -0.00903841 -0.00903768 
-0.00903476 -0.00902977 -0.00902275 -0.00901448 -0.00900954 -0.00901315 -0.00902146 -0.00902904 -0.00903453 
-0.00903774 -0.00903854 -0.00903806 -0.00903789 -0.00903708 -0.009034 -0.00902832 -0.0090203 -0.00901167 
-0.00900816 -0.00901317 -0.00902124 -0.00902803 -0.00903255 -0.00903451 -0.00903446 -0.00903434 -0.00903476 
-0.00903299 -0.00902923 -0.00902889 -0.0193731 -0.0193735 -0.0193806 -0.0193888 -0.019396 -0.0194018 
-0.0194057 -0.0194073 -0.0194059 -0.0194021 -0.0193965 -0.0193893 -0.019381 -0.019373 -0.0193696 
-0.0193742 -0.0193826 -0.0193909 -0.0193979 -0.0194036 -0.0194077 -0.0194093 -0.0194078 -0.0194036 
-0.0193977 -0.0193907 -0.0193828 -0.019374 -0.019366 -0.0193637 -0.0193697 -0.0193787 -0.0193875 
-0.0193952 -0.0194021 -0.0194077 -0.0194115 -0.0194123 -0.0194097 -0.0194048 -0.0193983 -0.0193907 
-0.0193821 -0.0193729 -0.0193658 -0.0193665 -0.0193744 -0.0193838 -0.0193923 -0.0193997 -0.0194056 
-0.0194097 -0.019411 -0.0194088 -0.019404 -0.0193974 -0.0193894 -0.0193801 -0.0193708 -0.0193656 
-0.0193695 -0.0193788 -0.0193885 -0.0193971 -0.0194041 -0.019409 -0.019411 -0.0194091 -0.0194042 
-0.0193971 -0.0193881 -0.0193778 -0.0193684 -0.019365 -0.0193708 -0.0193805 -0.0193901 -0.0193981 
-0.0194042 -0.0194079 -0.0194085 -0.0194067 -0.0194027 -0.0193978 -0.0193976 -0.0297289 -0.0297294 
-0.0297373 -0.0297477 -0.0297586 -0.0297695 -0.0297793 -0.0297842 -0.0297806 -0.0297716 -0.029761 
-0.0297501 -0.0297394 -0.0297304 -0.0297267 -0.0297315 -0.029741 -0.0297517 -0.0297625 -0.0297732 
-0.0297825 -0.0297869 -0.0297825 -0.0297727 -0.0297615 -0.0297503 -0.0297394 -0.0297288 -0.0297202 
-0.0297177 -0.0297237 -0.0297338 -0.0297449 -0.0297561 -0.0297676 -0.0297787 -0.0297877 -0.0297896 
-0.0297827 -0.0297719 -0.0297604 -0.0297489 -0.0297376 -0.0297269 -0.0297195 -0.0297203 -0.0297286 
-0.0297398 -0.0297514 -0.0297632 -0.0297746 -0.0297843 -0.0297878 -0.0297819 -0.0297712 -0.0297593 
-0.0297471 -0.0297351 -0.0297245 -0.0297191 -0.0297233 -0.0297338 -0.0297462 -0.0297589 -0.0297713 
-0.0297823 -0.0297879 -0.0297836 -0.0297727 -0.0297599 -0.0297464 -0.0297334 -0.0297229 -0.0297197 
-0.0297264 -0.0297382 -0.0297513 -0.0297644 -0.0297764 -0.0297849 -0.0297861 -0.0297804 -0.0297725 
-0.0297657 -0.0297651 -0.0400863 -0.0400865 -0.0400949 -0.0401077 -0.0401233 -0.0401411 -0.0401587 
-0.040168 -0.0401613 -0.0401452 -0.0401277 -0.0401117 -0.0400976 -0.0400869 -0.0400828 -0.040088 
-0.0400991 -0.0401132 -0.0401292 -0.0401467 -0.0401633 -0.0401713 -0.0401632 -0.040146 -0.0401277 
-0.040111 -0.0400959 -0.0400827 -0.040073 -0.0400702 -0.0400764 -0.0400881 -0.0401024 -0.0401183 
-0.0401359 -0.0401546 -0.0401704 -0.0401737 -0.0401611 -0.0401424 -0.040124 -0.0401073 -0.0400923 
-0.0400795 -0.0400715 -0.0400724 -0.0400817 -0.0400953 -0.0401112 -0.0401288 -0.0401478 -0.0401651 
-0.0401715 -0.0401608 -0.0401419 -0.0401226 -0.0401049 -0.0400891 -0.0400766 -0.0400707 -0.0400754 
-0.0400876 -0.0401037 -0.040122 -0.040142 -0.0401613 -0.0401717 -0.0401643 -0.0401454 -0.0401245 
-0.0401051 -0.0400883 -0.0400762 -0.040073 -0.0400809 -0.0400956 -0.0401137 -0.0401336 -0.0401537 
-0.0401686 -0.0401697 -0.0401579 -0.0401439 -0.040134 -0.0401328 -0.0504517 -0.0504505 -0.0504585 
-0.0504738 -0.0504949 -0.050521 -0.050548 -0.0505626 -0.0505522 -0.0505272 -0.0505012 -0.0504786 
-0.0504599 -0.0504465 -0.0504415 -0.0504476 -0.0504615 -0.0504803 -0.0505028 -0.0505286 -0.0505541 
-0.0505665 -0.0505542 -0.0505279 -0.0505011 -0.0504778 -0.0504576 -0.0504405 -0.0504285 -0.0504249 
-0.0504322 -0.0504467 -0.0504654 -0.050487 -0.0505119 -0.0505396 -0.0505637 -0.0505686 -0.0505493 
-0.050521 -0.0504943 -0.0504712 -0.0504513 -0.0504352 -0.0504257 -0.0504268 -0.0504378 -0.0504552 
-0.0504765 -0.0505014 -0.0505297 -0.0505563 -0.0505662 -0.0505496 -0.0505208 -0.0504923 -0.0504675 
-0.0504467 -0.050431 -0.0504241 -0.0504296 -0.0504448 -0.0504659 -0.0504914 -0.0505208 -0.0505504 
-0.0505667 -0.0505554 -0.0505267 -0.0504958 -0.0504686 -0.0504466 -0.050432 -0.0504285 -0.0504383 
-0.0504573 -0.0504819 -0.0505106 -0.0505406 -0.0505628 -0.0505631 -0.0505431 -0.0505208 -0.0505068 
-0.0505051 -0.0608334 -0.0608295 -0.0608365 -0.060854 -0.0608807 -0.0609155 -0.0609527 -0.0609728 
-0.0609583 -0.0609239 -0.0608888 -0.0608591 -0.0608351 -0.0608179 -0.0608115 -0.0608192 -0.060837 
-0.0608611 -0.0608904 -0.0609249 -0.0609599 -0.0609773 -0.0609604 -0.0609247 -0.0608893 -0.0608592 
-0.0608335 -0.0608117 -0.0607961 -0.0607914 -0.0608006 -0.0608192 -0.0608429 -0.0608704 -0.0609025 
-0.0609396 -0.0609726 -0.0609793 -0.0609526 -0.0609142 -0.0608792 -0.0608496 -0.0608242 -0.0608036 
-0.0607915 -0.0607928 -0.0608069 -0.060829 -0.0608562 -0.0608886 -0.0609266 -0.0609632 -0.0609769 
-0.0609541 -0.0609145 -0.0608765 -0.0608442 -0.0608174 -0.0607974 -0.0607884 -0.0607955 -0.0608148 
-0.0608419 -0.0608752 -0.0609145 -0.0609551 -0.0609779 -0.0609626 -0.0609232 -0.0608815 -0.0608458 
-0.0608176 -0.0607992 -0.060795 -0.0608077 -0.0608322 -0.0608643 -0.0609023 -0.0609427 -0.0609725 
-0.0609713 -0.0609415 -0.0609093 -0.0608908 -0.0608894 -0.0712393 -0.0712316 -0.0712373 -0.0712568 
-0.0712881 -0.0713308 -0.0713781 -0.0714043 -0.071385 -0.071341 -0.0712981 -0.0712629 -0.0712342 
-0.0712132 -0.071205 -0.0712148 -0.0712366 -0.0712652 -0.0712997 -0.0713417 -0.0713861 -0.071409 
-0.0713872 -0.071342 -0.0712992 -0.0712643 -0.0712346 -0.0712085 -0.071189 -0.0711827 -0.0711944 
-0.0712173 -0.0712453 -0.0712769 -0.0713146 -0.0713599 -0.0714021 -0.071411 -0.0713765 -0.0713286 
-0.0712868 -0.0712525 -0.0712227 -0.0711976 -0.0711823 -0.0711841 -0.0712016 -0.0712282 -0.07126 
-0.0712982 -0.0713445 -0.0713912 -0.0714093 -0.0713797 -0.0713297 -0.0712836 -0.0712456 -0.0712138 
-0.0711891 -0.0711776 -0.0711866 -0.0712103 -0.0712426 -0.071282 -0.0713298 -0.0713812 -0.0714109 
-0.0713911 -0.071341 -0.0712897 -0.071247 -0.0712132 -0.0711907 -0.0711854 -0.0712014 -0.0712311 
-0.0712696 -0.0713155 -0.0713655 -0.0714031 -0.0713999 -0.0713593 -0.0713166 -0.071294 -0.0712945 

temperature 1 1530 double
294.643 294.579 294.495 294.43 294.376 294.328 294.283 294.254 294.279 
294.32 294.362 294.407 294.472 294.564 294.616 294.548 294.459 294.401 
294.359 294.317 294.273 294.242 294.265 294.308 294.351 294.388 294.43 
294.494 294.585 294.621 294.543 294.459 294.406 294.368 294.328 294.282 
294.237 294.219 294.255 294.303 294.347 294.387 294.439 294.519 294.61 
294.599 294.503 294.425 294.371 294.328 294.281 294.233 294.207 294.24 
294.29 294.337 294.387 294.453 294.549 294.624 294.571 294.471 294.397 
294.339 294.288 294.238 294.204 294.233 294.282 294.335 294.396 294.475 
294.577 294.628 294.558 294.468 294.4 294.347 294.302 294.272 294.286 
294.348 294.447 294.551 294.624 294.384 294.189 293.946 293.767 293.634 
293.522 293.422 293.361 293.415 293.505 293.602 293.713 293.883 294.154 
294.315 294.103 293.846 293.696 293.593 293.495 293.398 293.33 293.38 
293.473 293.57 293.662 293.77 293.943 294.214 294.325 294.083 293.841 
293.704 293.608 293.512 293.407 293.313 293.274 293.349 293.453 293.555 
293.655 293.785 294.013 294.291 294.254 293.963 293.746 293.616 293.511 
293.405 293.304 293.247 293.318 293.423 293.533 293.652 293.821 294.101 
294.334 294.166 293.87 293.673 293.537 293.421 293.313 293.24 293.302 
293.407 293.525 293.67 293.879 294.181 294.346 294.128 293.865 293.691 
293.567 293.468 293.404 293.439 293.578 293.818 294.114 294.334 294.171 
293.872 293.511 293.266 293.114 292.993 292.888 292.819 292.882 292.978 
293.081 293.207 293.431 293.83 294.077 293.753 293.377 293.183 293.067 
292.962 292.861 292.785 292.84 292.935 293.038 293.141 293.266 293.509 
293.917 294.088 293.716 293.36 293.184 293.072 292.966 292.858 292.761 
292.718 292.799 292.904 293.013 293.126 293.286 293.612 294.038 293.979 
293.538 293.236 293.083 292.968 292.858 292.755 292.691 292.77 292.878 
292.992 293.124 293.34 293.746 294.104 293.843 293.405 293.146 292.996 
292.875 292.765 292.683 292.754 292.863 292.986 293.144 293.418 293.865 
294.122 293.785 293.4 293.181 293.043 292.938 292.869 292.91 293.066 
293.354 293.774 294.1 294.01 293.651 293.234 292.983 292.856 292.761 
292.671 292.599 292.668 292.754 292.835 292.934 293.154 293.606 293.9 
293.514 293.094 292.909 292.819 292.739 292.651 292.57 292.629 292.712 
292.793 292.874 292.98 293.233 293.707 293.913 293.466 293.069 292.899 
292.81 292.728 292.643 292.555 292.509 292.593 292.681 292.764 292.852 
292.996 293.35 293.853 293.782 293.268 292.951 292.821 292.733 292.647 
292.556 292.486 292.572 292.665 292.753 292.853 293.057 293.509 293.934 
293.62 293.125 292.872 292.756 292.662 292.565 292.475 292.553 292.653 
292.75 292.872 293.142 293.65 293.955 293.551 293.122 292.914 292.802 
292.709 292.638 292.677 292.823 293.091 293.55 293.927 293.893 293.513 
293.091 292.87 292.781 292.713 292.624 292.536 292.623 292.712 292.773 
292.833 293.017 293.464 293.772 293.369 292.96 292.813 292.76 292.702 
292.614 292.514 292.589 292.677 292.741 292.792 292.864 293.087 293.568 
293.788 293.319 292.934 292.798 292.743 292.69 292.618 292.517 292.463 
292.568 292.653 292.714 292.766 292.873 293.204 293.725 293.651 293.126 
292.84 292.75 292.696 292.627 292.527 292.44 292.549 292.644 292.709 
292.769 292.93 293.369 293.814 293.483 292.993 292.782 292.709 292.639 
292.538 292.424 292.519 292.628 292.706 292.786 293.014 293.519 293.836 
293.407 292.99 292.821 292.738 292.648 292.561 292.598 292.745 292.976 
293.418 293.8 293.812 293.437 293.035 292.852 292.795 292.74 292.633 
292.516 292.63 292.742 292.795 292.827 292.967 293.38 293.682 293.289 
292.917 292.81 292.786 292.738 292.631 292.499 292.601 292.715 292.777 
292.806 292.845 293.027 293.483 293.701 293.244 292.894 292.797 292.773 
292.738 292.661 292.526 292.458 292.602 292.705 292.754 292.778 292.846 
293.135 293.639 293.568 293.067 292.825 292.772 292.743 292.676 292.545 
292.433 292.579 292.695 292.751 292.781 292.897 293.297 293.731 293.406 