# vtk DataFile Version 4.1
vtk output
ASCII
DATASET STRUCTURED_GRID
DIMENSIONS 101 21 1
POINTS 2121 float
0 0 0 0.1 0 0 0.2 0 0 
0.3 0 0 0.4 0 0 0.5 0 0 
0.6 0 0 0.7 0 0 0.8 0 0 
0.9 0 0 1 0 0 1.1 0 0 
1.2 0 0 1.3 0 0 1.4 0 0 
1.5 0 0 1.6 0 0 1.7 0 0 
1.8 0 0 1.9 0 0 2 0 0 
2.1 0 0 2.2 0 0 2.3 0 0 
2.4 0 0 2.5 0 0 2.6 0 0 
2.7 0 0 2.8 0 0 2.9 0 0 
3 0 0 3.1 0 0 3.2 0 0 
3.3 0 0 3.4 0 0 3.5 0 0 
3.6 0 0 3.7 0 0 3.8 0 0 
3.9 0 0 4 0 0 4.1 0 0 
4.2 0 0 4.3 0 0 4.4 0 0 
4.5 0 0 4.6 0 0 4.7 0 0 
4.8 0 0 4.9 0 0 5 0 0 
5.1 0 0 5.2 0 0 5.3 0 0 
5.4 0 0 5.5 0 0 5.6 0 0 
5.7 0 0 5.8 0 0 5.9 0 0 
6 0 0 6.1 0 0 6.2 0 0 
6.3 0 0 6.4 0 0 6.5 0 0 
6.6 0 0 6.7 0 0 6.8 0 0 
6.9 0 0 7 0 0 7.1 0 0 
7.2 0 0 7.3 0 0 7.4 0 0 
7.5 0 0 7.6 0 0 7.7 0 0 
7.8 0 0 7.9 0 0 8 0 0 
8.1 0 0 8.2 0 0 8.3 0 0 
8.4 0 0 8.5 0 0 8.6 0 0 
8.7 0 0 8.8 0 0 8.9 0 0 
9 0 0 9.1 0 0 9.2 0 0 
9.3 0 0 9.4 0 0 9.5 0 0 
9.6 0 0 9.7 0 0 9.8 0 0 
9.9 0 0 10 0 0 0 0.1 0 
0.1 0.1 0 0.2 0.1 0 0.3 0.1 0 
0.4 0.1 0 0.5 0.1 0 0.6 0.1 0 
0.7 0.1 0 0.8 0.1 0 0.9 0.1 0 
1 0.1 0 1.1 0.1 0 1.2 0.1 0 
1.3 0.1 0 1.4 0.1 0 1.5 0.1 0 
1.6 0.1 0 1.7 0.1 0 1.8 0.1 0 
1.9 0.1 0 2 0.1 0 2.1 0.1 0 
2.2 0.1 0 2.3 0.1 0 2.4 0.1 0 
2.5 0.1 0 2.6 0.1 0 2.7 0.1 0 
2.8 0.1 0 2.9 0.1 0 3 0.1 0 
3.1 0.1 0 3.2 0.1 0 3.3 0.1 0 
3.4 0.1 0 3.5 0.1 0 3.6 0.1 0 
3.7 0.1 0 3.8 0.1 0 3.9 0.1 0 
4 0.1 0 4.1 0.1 0 4.2 0.1 0 
4.3 0.1 0 4.4 0.1 0 4.5 0.1 0 
4.6 0.1 0 4.7 0.1 0 4.8 0.1 0 
4.9 0.1 0 5 0.1 0 5.1 0.1 0 
5.2 0.1 0 5.3 0.1 0 5.4 0.1 0 
5.5 0.1 0 5.6 0.1 0 5.7 0.1 0 
5.8 0.1 0 5.9 0.1 0 6 0.1 0 
6.1 0.1 0 6.2 0.1 0 6.3 0.1 0 
6.4 0.1 0 6.5 0.1 0 6.6 0.1 0 
6.7 0.1 0 6.8 0.1 0 6.9 0.1 0 
7 0.1 0 7.1 0.1 0 7.2 0.1 0 
7.3 0.1 0 7.4 0.1 0 7.5 0.1 0 
7.6 0.1 0 7.7 0.1 0 7.8 0.1 0 
7.9 0.1 0 8 0.1 0 8.1 0.1 0 
8.2 0.1 0 8.3 0.1 0 8.4 0.1 0 
8.5 0.1 0 8.6 0.1 0 8.7 0.1 0 
8.8 0.1 0 8.9 0.1 0 9 0.1 0 
9.1 0.1 0 9.2 0.1 0 9.3 0.1 0 
9.4 0.1 0 9.5 0.1 0 9.6 0.1 0 
9.7 0.1 0 9.8 0.1 0 9.9 0.1 0 
10 0.1 0 0 0.2 0 0.1 0.2 0 
0.2 0.2 0 0.3 0.2 0 0.4 0.2 0 
0.5 0.2 0 0.6 0.2 0 0.7 0.2 0 
0.8 0.2 0 0.9 0.2 0 1 0.2 0 
1.1 0.2 0 1.2 0.2 0 1.3 0.2 0 
1.4 0.2 0 1.5 0.2 0 1.6 0.2 0 
1.7 0.2 0 1.8 0.2 0 1.9 0.2 0 
2 0.2 0 2.1 0.2 0 2.2 0.2 0 
2.3 0.2 0 2.4 0.2 0 2.5 0.2 0 
2.6 0.2 0 2.7 0.2 0 2.8 0.2 0 
2.9 0.2 0 3 0.2 0 3.1 0.2 0 
3.2 0.2 0 3.3 0.2 0 3.4 0.2 0 
3.5 0.2 0 3.6 0.2 0 3.7 0.2 0 
3.8 0.2 0 3.9 0.2 0 4 0.2 0 
4.1 0.2 0 4.2 0.2 0 4.3 0.2 0 
4.4 0.2 0 4.5 0.2 0 4.6 0.2 0 
4.7 0.2 0 4.8 0.2 0 4.9 0.2 0 
5 0.2 0 5.1 0.2 0 5.2 0.2 0 
5.3 0.2 0 5.4 0.2 0 5.5 0.2 0 
5.6 0.2 0 5.7 0.2 0 5.8 0.2 0 
5.9 0.2 0 6 0.2 0 6.1 0.2 0 
6.2 0.2 0 6.3 0.2 0 6.4 0.2 0 
6.5 0.2 0 6.6 0.2 0 6.7 0.2 0 
6.8 0.2 0 6.9 0.2 0 7 0.2 0 
7.1 0.2 0 7.2 0.2 0 7.3 0.2 0 
7.4 0.2 0 7.5 0.2 0 7.6 0.2 0 
7.7 0.2 0 7.8 0.2 0 7.9 0.2 0 
8 0.2 0 8.1 0.2 0 8.2 0.2 0 
8.3 0.2 0 8.4 0.2 0 8.5 0.2 0 
8.6 0.2 0 8.7 0.2 0 8.8 0.2 0 
8.9 0.2 0 9 0.2 0 9.1 0.2 0 
9.2 0.2 0 9.3 0.2 0 9.4 0.2 0 
9.5 0.2 0 9.6 0.2 0 9.7 0.2 0 
9.8 0.2 0 9.9 0.2 0 10 0.2 0 
0 0.3 0 0.1 0.3 0 0.2 0.3 0 
0.3 0.3 0 0.4 0.3 0 0.5 0.3 0 
0.6 0.3 0 0.7 0.3 0 0.8 0.3 0 
0.9 0.3 0 1 0.3 0 1.1 0.3 0 
1.2 0.3 0 1.3 0.3 0 1.4 0.3 0 
1.5 0.3 0 1.6 0.3 0 1.7 0.3 0 
1.8 0.3 0 1.9 0.3 0 2 0.3 0 
2.1 0.3 0 2.2 0.3 0 2.3 0.3 0 
2.4 0.3 0 2.5 0.3 0 2.6 0.3 0 
2.7 0.3 0 2.8 0.3 0 2.9 0.3 0 
3 0.3 0 3.1 0.3 0 3.2 0.3 0 
3.3 0.3 0 3.4 0.3 0 3.5 0.3 0 
3.6 0.3 0 3.7 0.3 0 3.8 0.3 0 
3.9 0.3 0 4 0.3 0 4.1 0.3 0 
4.2 0.3 0 4.3 0.3 0 4.4 0.3 0 
4.5 0.3 0 4.6 0.3 0 4.7 0.3 0 
4.8 0.3 0 4.9 0.3 0 5 0.3 0 
5.1 0.3 0 5.2 0.3 0 5.3 0.3 0 
5.4 0.3 0 5.5 0.3 0 5.6 0.3 0 
5.7 0.3 0 5.8 0.3 0 5.9 0.3 0 
6 0.3 0 6.1 0.3 0 6.2 0.3 0 
6.3 0.3 0 6.4 0.3 0 6.5 0.3 0 
6.6 0.3 0 6.7 0.3 0 6.8 0.3 0 
6.9 0.3 0 7 0.3 0 7.1 0.3 0 
7.2 0.3 0 7.3 0.3 0 7.4 0.3 0 
7.5 0.3 0 7.6 0.3 0 7.7 0.3 0 
7.8 0.3 0 7.9 0.3 0 8 0.3 0 
8.1 0.3 0 8.2 0.3 0 8.3 0.3 0 
8.4 0.3 0 8.5 0.3 0 8.6 0.3 0 
8.7 0.3 0 8.8 0.3 0 8.9 0.3 0 
9 0.3 0 9.1 0.3 0 9.2 0.3 0 
9.3 0.3 0 9.4 0.3 0 9.5 0.3 0 
9.6 0.3 0 9.7 0.3 0 9.8 0.3 0 
9.9 0.3 0 10 0.3 0 0 0.4 0 
0.1 0.4 0 0.2 0.4 0 0.3 0.4 0 
0.4 0.4 0 0.5 0.4 0 0.6 0.4 0 
0.7 0.4 0 0.8 0.4 0 0.9 0.4 0 
1 0.4 0 1.1 0.4 0 1.2 0.4 0 
1.3 0.4 0 1.4 0.4 0 1.5 0.4 0 
1.6 0.4 0 1.7 0.4 0 1.8 0.4 0 
1.9 0.4 0 2 0.4 0 2.1 0.4 0 
2.2 0.4 0 2.3 0.4 0 2.4 0.4 0 
2.5 0.4 0 2.6 0.4 0 2.7 0.4 0 
2.8 0.4 0 2.9 0.4 0 3 0.4 0 
3.1 0.4 0 3.2 0.4 0 3.3 0.4 0 
3.4 0.4 0 3.5 0.4 0 3.6 0.4 0 
3.7 0.4 0 3.8 0.4 0 3.9 0.4 0 
4 0.4 0 4.1 0.4 0 4.2 0.4 0 
4.3 0.4 0 4.4 0.4 0 4.5 0.4 0 
4.6 0.4 0 4.7 0.4 0 4.8 0.4 0 
4.9 0.4 0 5 0.4 0 5.1 0.4 0 
5.2 0.4 0 5.3 0.4 0 5.4 0.4 0 
5.5 0.4 0 5.6 0.4 0 5.7 0.4 0 
5.8 0.4 0 5.9 0.4 0 6 0.4 0 
6.1 0.4 0 6.2 0.4 0 6.3 0.4 0 
6.4 0.4 0 6.5 0.4 0 6.6 0.4 0 
6.7 0.4 0 6.8 0.4 0 6.9 0.4 0 
7 0.4 0 7.1 0.4 0 7.2 0.4 0 
7.3 0.4 0 7.4 0.4 0 7.5 0.4 0 
7.6 0.4 0 7.7 0.4 0 7.8 0.4 0 
7.9 0.4 0 8 0.4 0 8.1 0.4 0 
8.2 0.4 0 8.3 0.4 0 8.4 0.4 0 
8.5 0.4 0 8.6 0.4 0 8.7 0.4 0 
8.8 0.4 0 8.9 0.4 0 9 0.4 0 
9.1 0.4 0 9.2 0.4 0 9.3 0.4 0 
9.4 0.4 0 9.5 0.4 0 9.6 0.4 0 
9.7 0.4 0 9.8 0.4 0 9.9 0.4 0 
10 0.4 0 0 0.5 0 0.1 0.5 0 
0.2 0.5 0 0.3 0.5 0 0.4 0.5 0 
0.5 0.5 0 0.6 0.5 0 0.7 0.5 0 
0.8 0.5 0 0.9 0.5 0 1 0.5 0 
1.1 0.5 0 1.2 0.5 0 1.3 0.5 0 
1.4 0.5 0 1.5 0.5 0 1.6 0.5 0 
1.7 0.5 0 1.8 0.5 0 1.9 0.5 0 
2 0.5 0 2.1 0.5 0 2.2 0.5 0 
2.3 0.5 0 2.4 0.5 0 2.5 0.5 0 
2.6 0.5 0 2.7 0.5 0 2.8 0.5 0 
2.9 0.5 0 3 0.5 0 3.1 0.5 0 
3.2 0.5 0 3.3 0.5 0 3.4 0.5 0 
3.5 0.5 0 3.6 0.5 0 3.7 0.5 0 
3.8 0.5 0 3.9 0.5 0 4 0.5 0 
4.1 0.5 0 4.2 0.5 0 4.3 0.5 0 
4.4 0.5 0 4.5 0.5 0 4.6 0.5 0 
4.7 0.5 0 4.8 0.5 0 4.9 0.5 0 
5 0.5 0 5.1 0.5 0 5.2 0.5 0 
5.3 0.5 0 5.4 0.5 0 5.5 0.5 0 
5.6 0.5 0 5.7 0.5 0 5.8 0.5 0 
5.9 0.5 0 6 0.5 0 6.1 0.5 0 
6.2 0.5 0 6.3 0.5 0 6.4 0.5 0 
6.5 0.5 0 6.6 0.5 0 6.7 0.5 0 
6.8 0.5 0 6.9 0.5 0 7 0.5 0 
7.1 0.5 0 7.2 0.5 0 7.3 0.5 0 
7.4 0.5 0 7.5 0.5 0 7.6 0.5 0 
7.7 0.5 0 7.8 0.5 0 7.9 0.5 0 
8 0.5 0 8.1 0.5 0 8.2 0.5 0 
8.3 0.5 0 8.4 0.5 0 8.5 0.5 0 
8.6 0.5 0 8.7 0.5 0 8.8 0.5 0 
8.9 0.5 0 9 0.5 0 9.1 0.5 0 
9.2 0.5 0 9.3 0.5 0 9.4 0.5 0 
9.5 0.5 0 9.6 0.5 0 9.7 0.5 0 
9.8 0.5 0 9.9 0.5 0 10 0.5 0 
0 0.6 0 0.1 0.6 0 0.2 0.6 0 
0.3 0.6 0 0.4 0.6 0 0.5 0.6 0 
0.6 0.6 0 0.7 0.6 0 0.8 0.6 0 
0.9 0.6 0 1 0.6 0 1.1 0.6 0 
1.2 0.6 0 1.3 0.6 0 1.4 0.6 0 
1.5 0.6 0 1.6 0.6 0 1.7 0.6 0 
1.8 0.6 0 1.9 0.6 0 2 0.6 0 
2.1 0.6 0 2.2 0.6 0 2.3 0.6 0 
2.4 0.6 0 2.5 0.6 0 2.6 0.6 0 
2.7 0.6 0 2.8 0.6 0 2.9 0.6 0 
3 0.6 0 3.1 0.6 0 3.2 0.6 0 
3.3 0.6 0 3.4 0.6 0 3.5 0.6 0 
3.6 0.6 0 3.7 0.6 0 3.8 0.6 0 
3.9 0.6 0 4 0.6 0 4.1 0.6 0 
4.2 0.6 0 4.3 0.6 0 4.4 0.6 0 
4.5 0.6 0 4.6 0.6 0 4.7 0.6 0 
4.8 0.6 0 4.9 0.6 0 5 0.6 0 
5.1 0.6 0 5.2 0.6 0 5.3 0.6 0 
5.4 0.6 0 5.5 0.6 0 5.6 0.6 0 
5.7 0.6 0 5.8 0.6 0 5.9 0.6 0 
6 0.6 0 6.1 0.6 0 6.2 0.6 0 
6.3 0.6 0 6.4 0.6 0 6.5 0.6 0 
6.6 0.6 0 6.7 0.6 0 6.8 0.6 0 
6.9 0.6 0 7 0.6 0 7.1 0.6 0 
7.2 0.6 0 7.3 0.6 0 7.4 0.6 0 
7.5 0.6 0 7.6 0.6 0 7.7 0.6 0 
7.8 0.6 0 7.9 0.6 0 8 0.6 0 
8.1 0.6 0 8.2 0.6 0 8.3 0.6 0 
8.4 0.6 0 8.5 0.6 0 8.6 0.6 0 
8.7 0.6 0 8.8 0.6 0 8.9 0.6 0 
9 0.6 0 9.1 0.6 0 9.2 0.6 0 
9.3 0.6 0 9.4 0.6 0 9.5 0.6 0 
9.6 0.6 0 9.7 0.6 0 9.8 0.6 0 
9.9 0.6 0 10 0.6 0 0 0.7 0 
0.1 0.7 0 0.2 0.7 0 0.3 0.7 0 
0.4 0.7 0 0.5 0.7 0 0.6 0.7 0 
0.7 0.7 0 0.8 0.7 0 0.9 0.7 0 
1 0.7 0 1.1 0.7 0 1.2 0.7 0 
1.3 0.7 0 1.4 0.7 0 1.5 0.7 0 
1.6 0.7 0 1.7 0.7 0 1.8 0.7 0 
1.9 0.7 0 2 0.7 0 2.1 0.7 0 
2.2 0.7 0 2.3 0.7 0 2.4 0.7 0 
2.5 0.7 0 2.6 0.7 0 2.7 0.7 0 
2.8 0.7 0 2.9 0.7 0 3 0.7 0 
3.1 0.7 0 3.2 0.7 0 3.3 0.7 0 
3.4 0.7 0 3.5 0.7 0 3.6 0.7 0 
3.7 0.7 0 3.8 0.7 0 3.9 0.7 0 
4 0.7 0 4.1 0.7 0 4.2 0.7 0 
4.3 0.7 0 4.4 0.7 0 4.5 0.7 0 
4.6 0.7 0 4.7 0.7 0 4.8 0.7 0 
4.9 0.7 0 5 0.7 0 5.1 0.7 0 
5.2 0.7 0 5.3 0.7 0 5.4 0.7 0 
5.5 0.7 0 5.6 0.7 0 5.7 0.7 0 
5.8 0.7 0 5.9 0.7 0 6 0.7 0 
6.1 0.7 0 6.2 0.7 0 6.3 0.7 0 
6.4 0.7 0 6.5 0.7 0 6.6 0.7 0 
6.7 0.7 0 6.8 0.7 0 6.9 0.7 0 
7 0.7 0 7.1 0.7 0 7.2 0.7 0 
7.3 0.7 0 7.4 0.7 0 7.5 0.7 0 
7.6 0.7 0 7.7 0.7 0 7.8 0.7 0 
7.9 0.7 0 8 0.7 0 8.1 0.7 0 
8.2 0.7 0 8.3 0.7 0 8.4 0.7 0 
8.5 0.7 0 8.6 0.7 0 8.7 0.7 0 
8.8 0.7 0 8.9 0.7 0 9 0.7 0 
9.1 0.7 0 9.2 0.7 0 9.3 0.7 0 
9.4 0.7 0 9.5 0.7 0 9.6 0.7 0 
9.7 0.7 0 9.8 0.7 0 9.9 0.7 0 
10 0.7 0 0 0.8 0 0.1 0.8 0 
0.2 0.8 0 0.3 0.8 0 0.4 0.8 0 
0.5 0.8 0 0.6 0.8 0 0.7 0.8 0 
0.8 0.8 0 0.9 0.8 0 1 0.8 0 
1.1 0.8 0 1.2 0.8 0 1.3 0.8 0 
1.4 0.8 0 1.5 0.8 0 1.6 0.8 0 
1.7 0.8 0 1.8 0.8 0 1.9 0.8 0 
2 0.8 0 2.1 0.8 0 2.2 0.8 0 
2.3 0.8 0 2.4 0.8 0 2.5 0.8 0 
2.6 0.8 0 2.7 0.8 0 2.8 0.8 0 
2.9 0.8 0 3 0.8 0 3.1 0.8 0 
3.2 0.8 0 3.3 0.8 0 3.4 0.8 0 
3.5 0.8 0 3.6 0.8 0 3.7 0.8 0 
3.8 0.8 0 3.9 0.8 0 4 0.8 0 
4.1 0.8 0 4.2 0.8 0 4.3 0.8 0 
4.4 0.8 0 4.5 0.8 0 4.6 0.8 0 
4.7 0.8 0 4.8 0.8 0 4.9 0.8 0 
5 0.8 0 5.1 0.8 0 5.2 0.8 0 
5.3 0.8 0 5.4 0.8 0 5.5 0.8 0 
5.6 0.8 0 5.7 0.8 0 5.8 0.8 0 
5.9 0.8 0 6 0.8 0 6.1 0.8 0 
6.2 0.8 0 6.3 0.8 0 6.4 0.8 0 
6.5 0.8 0 6.6 0.8 0 6.7 0.8 0 
6.8 0.8 0 6.9 0.8 0 7 0.8 0 
7.1 0.8 0 7.2 0.8 0 7.3 0.8 0 
7.4 0.8 0 7.5 0.8 0 7.6 0.8 0 
7.7 0.8 0 7.8 0.8 0 7.9 0.8 0 
8 0.8 0 8.1 0.8 0 8.2 0.8 0 
8.3 0.8 0 8.4 0.8 0 8.5 0.8 0 
8.6 0.8 0 8.7 0.8 0 8.8 0.8 0 
8.9 0.8 0 9 0.8 0 9.1 0.8 0 
9.2 0.8 0 9.3 0.8 0 9.4 0.8 0 
9.5 0.8 0 9.6 0.8 0 9.7 0.8 0 
9.8 0.8 0 9.9 0.8 0 10 0.8 0 
0 0.9 0 0.1 0.9 0 0.2 0.9 0 
0.3 0.9 0 0.4 0.9 0 0.5 0.9 0 
0.6 0.9 0 0.7 0.9 0 0.8 0.9 0 
0.9 0.9 0 1 0.9 0 1.1 0.9 0 
1.2 0.9 0 1.3 0.9 0 1.4 0.9 0 
1.5 0.9 0 1.6 0.9 0 1.7 0.9 0 
1.8 0.9 0 1.9 0.9 0 2 0.9 0 
2.1 0.9 0 2.2 0.9 0 2.3 0.9 0 
2.4 0.9 0 2.5 0.9 0 2.6 0.9 0 
2.7 0.9 0 2.8 0.9 0 2.9 0.9 0 
3 0.9 0 3.1 0.9 0 3.2 0.9 0 
3.3 0.9 0 3.4 0.9 0 3.5 0.9 0 
3.6 0.9 0 3.7 0.9 0 3.8 0.9 0 
3.9 0.9 0 4 0.9 0 4.1 0.9 0 
4.2 0.9 0 4.3 0.9 0 4.4 0.9 0 
4.5 0.9 0 4.6 0.9 0 4.7 0.9 0 
4.8 0.9 0 4.9 0.9 0 5 0.9 0 
5.1 0.9 0 5.2 0.9 0 5.3 0.9 0 
5.4 0.9 0 5.5 0.9 0 5.6 0.9 0 
5.7 0.9 0 5.8 0.9 0 5.9 0.9 0 
6 0.9 0 6.1 0.9 0 6.2 0.9 0 
6.3 0.9 0 6.4 0.9 0 6.5 0.9 0 
6.6 0.9 0 6.7 0.9 0 6.8 0.9 0 
6.9 0.9 0 7 0.9 0 7.1 0.9 0 
7.2 0.9 0 7.3 0.9 0 7.4 0.9 0 
7.5 0.9 0 7.6 0.9 0 7.7 0.9 0 
7.8 0.9 0 7.9 0.9 0 8 0.9 0 
8.1 0.9 0 8.2 0.9 0 8.3 0.9 0 
8.4 0.9 0 8.5 0.9 0 8.6 0.9 0 
[...]
CELL_DATA 2000
FIELD FieldData 2
pressure 1 2000 double
0.11123701307 0.16308258504 0.15353747827 0.13866315178 0.11791188118 0.090904039561 0.057717392248 0.019259940468 -0.022416764837 
-0.064143651461 -0.10265750831 -0.13544882117 -0.16110450737 -0.17922408136 -0.19018733274 -0.19494605795 -0.19475835201 -0.19105222792 
-0.18527325093 -0.17871470786 -0.17239229144 -0.1668792441 -0.16229711516 -0.15826562702 -0.15402040307 -0.14879909869 -0.14205881608 
-0.13358590832 -0.12348605904 -0.11209686436 -0.099872897378 -0.087309003568 -0.074838323064 -0.062814921817 -0.051483447666 -0.040978286949 
-0.031348883666 -0.022601206592 -0.014769851755 -0.0078338062004 -0.0019903432408 0.0022349545907 0.0042345427402 0.0035378760878 7.1218145223e-05 
-0.0056430403493 -0.012510043126 -0.019158203569 -0.02441996012 -0.027291706447 -0.027726764764 -0.02609540917 -0.022985030716 -0.019038264594 
-0.014828383758 -0.010778660253 -0.0071329783073 -0.0039603825434 -0.0011827020471 0.0013723793117 0.0038956694576 0.0064831126231 0.0093219861211 
0.012311108543 0.01512106154 0.017435311148 0.018952357161 0.019393832277 0.018525627859 0.016223713484 0.012577818004 0.0079840736103 
0.0031372123889 -0.001144562896 -0.004134844688 -0.0054021351254 -0.0051714295809 -0.0039070185025 -0.0022192047587 -0.00069397189182 0.00028117377504 
0.00062578150494 0.00057307985868 0.00053872174108 0.00090062649086 0.0017791090332 0.0031892702039 0.0049212359102 0.0065692729826 0.0079147629497 
0.0088654247786 0.0093896165014 0.0094672037199 0.0090626234225 0.0081306921021 0.0066592371971 0.0047397474287 0.0026443010916 0.00089808684365 
0.00038467041697 0.11377048381 0.16766383832 0.15848342504 0.14375624341 0.12282302173 0.095061573291 0.060279435893 0.019295225786 
-0.0255234308 -0.070048801746 -0.1103649712 -0.14388988506 -0.16941629273 -0.18679461996 -0.19661769937 -0.19998666302 -0.19830299269 
-0.19313143235 -0.18604521423 -0.17848072134 -0.17154970529 -0.16599055597 -0.16184952468 -0.15854591895 -0.15510880512 -0.15052129958 
-0.14413990229 -0.13576073286 -0.12553417515 -0.11387568493 -0.10130085885 -0.088338901202 -0.075475404306 -0.063075857395 -0.051389237989 
-0.040558122419 -0.030628170621 -0.021582099757 -0.013368631391 -0.0061471101065 -0.00028918342819 0.0037195201418 0.0052971433238 0.0039995892273 
-0.00019984840624 -0.006736996478 -0.014448302126 -0.021801256916 -0.027308280566 -0.030275718202 -0.030611767017 -0.02872472705 -0.025264747818 
-0.020932113104 -0.016337277227 -0.011927391914 -0.0079535388568 -0.0044825420241 -0.0014349497385 0.0013651425322 0.0041251851271 0.0070344699813 
0.0099615711036 0.01278270135 0.015309554616 0.017298391917 0.01849813801 0.018666163438 0.01758831701 0.015130673044 0.011339634304 
0.0065497903167 0.0014213642852 -0.0031332645007 -0.0062094514439 -0.0075584844085 -0.0073593582274 -0.0060362567234 -0.0042076655506 -0.0024735034007 
-0.0012342462849 -0.00057165948694 -0.00026177560517 8.8696875636e-05 0.00083472140553 0.0021458051773 0.0037657013471 0.0053653579448 0.0068030330383 
0.0079293089597 0.0086827516663 0.0090438872544 0.0089990364085 0.0085122616806 0.0075258935072 0.005997685012 0.003958222958 0.0015606208502 
-0.00091519812425 -0.0031527970675 0.11989608484 0.17720791958 0.16858309137 0.15429705636 0.13327507494 0.10425002194 0.06630511001 
0.019845087433 -0.032240507167 -0.083034287251 -0.12705042271 -0.1618152109 -0.18681281306 -0.20247450236 -0.2098181115 -0.21024957633 
-0.20541077535 -0.1971370068 -0.18728286532 -0.17751167117 -0.16934887443 -0.1637318149 -0.1606974402 -0.15923230679 -0.15770956772 
-0.15456114282 -0.14897606744 -0.14076287513 -0.13024433871 -0.11796218894 -0.10459204616 -0.090759321457 -0.076991292687 -0.063696922044 
-0.051154081328 -0.039521405086 -0.028863858025 -0.0191885973 -0.010485215833 -0.0028581001012 0.0031596557415 0.0069781178182 0.0079031734629 
0.0054864821763 -0.00024776070122 -0.0086225214521 -0.018270869073 -0.027345157755 -0.033983412193 -0.037207475358 -0.037296206062 -0.034809079438 
-0.030532713179 -0.025275775682 -0.019728765495 -0.014376846549 -0.0094969615061 -0.0051757036217 -0.0013579676225 0.0020848284295 0.0052894318817 
0.0083470296526 0.011244790276 0.013885028502 0.016085376605 0.017658961713 0.018405859775 0.018140379637 0.016685740495 0.013900050481 
0.0097833582099 0.0045957830726 -0.0010747996813 -0.0063609008481 -0.010334149629 -0.01205924306 -0.012012202637 -0.010582376445 -0.008370348079 
-0.0059851228761 -0.0038622162328 -0.0021654695402 -0.00079721909267 0.00047549576152 0.0018529922913 0.0033937604257 0.0049812361661 0.0064079717076 
0.0075704459144 0.0083755008337 0.0088163067248 0.0088951639182 0.008618862729 0.0079608548765 0.0068528243399 0.0052186499017 0.0030248048536 
0.0003107145164 -0.00285127619 -0.0065236786897 0.12918602796 0.19152972732 0.18389152726 0.17070966043 0.15019568248 0.11988671061 
0.077209133158 0.021210832783 -0.045121360644 -0.10685268798 -0.15600074701 -0.19157791795 -0.21485915651 -0.22727403341 -0.2303800789 
-0.2259743597 -0.21603751907 -0.20277481788 -0.18838177115 -0.17497098318 -0.16463874565 -0.15902669284 -0.15819885642 -0.16030471385 
-0.16226353444 -0.16154332421 -0.15713113433 -0.14903470196 -0.13785618111 -0.12450327667 -0.10984074868 -0.094627994923 -0.079474357192 
-0.064831192037 -0.051013337953 -0.038215044901 -0.026541540546 -0.016042684456 -0.0067431514014 0.0014250677513 0.0078179348405 0.011602102465 
0.011850832636 0.008082904066 0.0004191903125 -0.010356804381 -0.022723386976 -0.034517623139 -0.043388392588 -0.047367247102 -0.047121248884 
-0.04377260065 -0.038294407274 -0.031675361623 -0.024716648185 -0.017981376563 -0.011791055685 -0.0062754539358 -0.0014290301334 0.0028233266335 
0.0065642864517 0.0098395920075 0.012631833713 0.014928971316 0.016821800555 0.017970494958 0.018212438345 0.01745106353 0.015591311626 
0.012521789137 0.0082027528238 0.0028017861793 -0.0032127774617 -0.0090807557129 -0.013895949643 -0.016859146729 -0.017170638417 -0.015786163493 
-0.013249936741 -0.010159276766 -0.0070129280758 -0.0041044178784 -0.0015187410723 0.0007862716986 0.0028748483301 0.0047573218169 0.0063650306233 
0.0075870515402 0.0083570035653 0.0087882438696 0.0089024626604 0.0086520448867 0.0080905094196 0.0072323322588 0.0060190966556 0.0043547100299 
0.0021587602045 -0.00059622401345 -0.003901769014 -0.0077804102234 0.14113667801 0.21007537079 0.20421678436 0.193428526 0.17502366078 
0.14460546149 0.096143198138 0.024289972553 -0.070347172943 -0.14901634396 -0.20231324582 -0.23591761375 -0.25505390072 -0.26206702343 
-0.25878320659 -0.24743214412 -0.23016659643 -0.20961978674 -0.18866051861 -0.16981809942 -0.1558171417 -0.1500812663 -0.15307322718 
-0.16155156025 -0.16968944392 -0.17260032785 -0.16962642187 -0.16126788409 -0.14886575791 -0.13380762983 -0.11727665103 -0.10017161122 
-0.083169342453 -0.066768635257 -0.051319124675 -0.037052423411 -0.024126763287 -0.012665087833 -0.0027816040059 0.0054513865259 0.012316540439 
0.016322171292 0.016013029758 0.011068853933 0.0018295618511 -0.010832504329 -0.025435822232 -0.0398419412 -0.051506133264 -0.058175605489 
-0.058175669307 -0.05417016684 -0.047509909388 -0.039431766807 -0.030906549631 -0.022608566281 -0.014941288423 -0.0080917675052 -0.0021083906574 
0.003033782446 0.0073760319179 0.010926404217 0.013642074857 0.015442385347 0.016378579672 0.017030486803 0.016690148387 0.015392489766 
0.01323467979 0.010154757974 0.0060501784398 0.00094613024349 -0.0048662646376 -0.010795715552 -0.016050565056 -0.019864246916 -0.021229904208 
-0.020168111971 -0.017629195728 -0.014147952442 -0.010263043067 -0.0063882196248 -0.0027759831991 0.00044925513019 0.0032319616526 0.0055255200743 
0.0072638310564 0.0083779274634 0.008845683217 0.0087239951356 0.0082395265237 0.0076706538 0.0068389984222 0.0058455813153 0.0046488028583 
0.0031329280873 0.0011787685462 -0.0012823892634 -0.0042471777324 -0.0076230825459 0.15497005008 0.23178958107 0.2288342322 0.22249348486 
0.20937700844 0.18265920519 0.12977892476 0.031507696886 -0.12305317964 -0.22211838593 -0.26973744866 -0.29407620703 -0.30590014455 
-0.30557118773 -0.29459543889 -0.27463699838 -0.24772759965 -0.21750154724 -0.18790065698 -0.16224661525 -0.14238958392 -0.13526411545 
-0.14302870919 -0.16087208698 -0.17929401331 -0.18779940868 -0.1862573788 -0.17706359377 -0.16276582967 -0.14548538653 -0.12669960576 
-0.10741007694 -0.088320794092 -0.069953360575 -0.05269168047 -0.036812407771 -0.022538994735 -0.010118360992 9.6563733648e-05 0.0076805718663 
0.012941926612 0.017260164848 0.016334462163 0.010540574829 0.00085832575155 -0.011796818972 -0.026403302128 -0.041379116853 -0.054549852691 
-0.063728774954 -0.066553234759 -0.062818426656 -0.055799017625 -0.046907281937 -0.037287178978 -0.02775161921 -0.018820342757 -0.010781200844 
-0.0037592458579 0.0022049132701 0.00708365593 0.010811204873 0.013287029169 0.014447471463 0.014387071568 0.013299947165 0.012151095577 
0.010481183902 0.0084620709043 0.0059529480189 0.0027090356608 -0.001421065505 -0.0063456447075 -0.011665221867 -0.016722310156 -0.02075475069 
-0.023079722318 -0.022763760649 -0.020634484145 -0.017231916529 -0.013102447666 -0.008734302896 -0.0045016682926 -0.00065932010423 0.0026269357763 
0.0052335695934 0.0070571924755 0.0080300224577 0.0081696151053 0.0076147375621 0.0066077279358 0.0054702457239 0.0044304426732 0.0034570443762 
0.0024826549663 0.0013548501353 -8.8590250619e-05 -0.0019540060503 -0.0042465551589 -0.0068164369258 0.16952825817 0.25493123737 0.25606435388 
0.25670067892 0.25382161758 0.23941848744 0.19226337779 0.052880058454 -0.23912234965 -0.33978254868 -0.34877146546 -0.35283567548 
-0.35758691253 -0.35186357457 -0.33540549292 -0.30647233184 -0.26860024451 -0.22721221496 -0.18791841924 -0.15515869889 -0.13103775889 
-0.11898572499 -0.12858793162 -0.15343851198 -0.1818017097 -0.20161026647 -0.20197219298 -0.19202981877 -0.17603832566 -0.1569584107 
-0.13645249211 -0.11549539277 -0.094772990146 -0.074830456865 -0.056108966477 -0.038966858269 -0.023732078709 -0.010824214359 -0.00094347609952 
0.0051640444993 0.0075828448814 0.0068966584548 0.0047463313637 -0.00011937593025 -0.0073551645327 -0.016815743561 -0.028231529048 -0.040760897593 
-0.052809940726 -0.06236472163 -0.067676512533 -0.066447913238 -0.060411712139 -0.051978520097 -0.042340153658 -0.032438037781 -0.022926842047 
-0.014225079714 -0.0065835409422 -0.0001665269578 0.0048605463775 0.0082972801261 0.0099869816198 0.0099778931192 0.0086247516285 0.0064725765485 
0.004264111199 0.0026385275755 0.0013490041325 2.5269705738e-05 -0.0017477205709 -0.0042969778602 -0.0077290117741 -0.011844623674 -0.016144652537 
-0.019943263076 -0.02255662083 -0.023316948285 -0.021798219704 -0.018885725604 -0.015020108736 -0.010692013568 -0.0063407966333 -0.002314103157 
0.0011262916914 0.0037756447872 0.0054807285872 0.0061689208456 0.0059029514668 0.0049061633846 0.0035142868297 0.002051743889 0.00091118820026 
0.00013208874789 -0.0004149860329 -0.00093422193347 -0.0016366706734 -0.002675876196 -0.0040916140185 -0.0057474914569 0.18329367824 0.27702724129 
0.28288811088 0.29233114345 0.30471166869 0.31601561567 0.30739004181 0.16988722642 -0.3948737451 -0.4950908652 -0.39991201754 
-0.38297065351 -0.38919342117 -0.38999848545 -0.37266618822 -0.33789796411 -0.29185930367 -0.24216111071 -0.19643586566 -0.16024818867 
-0.13566240214 -0.12542560609 -0.13083516669 -0.14963274933 -0.17435794547 -0.19560199525 -0.20542887558 -0.19704219981 -0.18161564837 
-0.16294380676 -0.14279314076 -0.12201590576 -0.10127548597 -0.081192585743 -0.06236417491 -0.045422459418 -0.031118420483 -0.020264674633 
-0.013454722062 -0.010730361866 -0.011329028507 -0.01419692136 -0.016800825396 -0.018995304825 -0.021776255267 -0.02587512086 -0.031803038813 
-0.039529479041 -0.048195294328 -0.056206549853 -0.061758084538 -0.063455896376 -0.059772503593 -0.053075916749 -0.044664086915 -0.035526619087 
-0.026426557288 -0.01792154244 -0.010421666425 -0.0042712190936 0.00018815033126 0.002650682304 0.0030137616171 0.0015764148726 -0.00095007496519 
-0.0037073801835 -0.0059381037231 -0.0068813591744 -0.0069485071269 -0.0066714494614 -0.0066003511635 -0.0072052124994 -0.008767861988 -0.011284608767 
-0.014429019966 -0.017619059706 -0.02017976955 -0.021531936461 -0.020920875622 -0.018817460947 -0.015622150673 -0.011799470935 -0.0078077891608 
-0.0040491854247 -0.00085869128109 0.0014921315314 0.0028120664839 0.0030375378346 0.0022884788451 0.00087326165572 -0.00079806787175 -0.0023512612171 
-0.0033922839646 -0.0037996880337 -0.0037497539915 -0.0034949389073 -0.0032982227362 -0.0033686428029 -0.0038032509334 -0.0045299052663 0.19460850886 
0.29520108407 0.3051498115 0.32256201051 0.35011987679 0.39258997313 0.45843717843 0.57827298525 0.091699620079 -0.43991336164 
-0.38473585809 -0.38139120031 -0.3903103331 -0.401961606 -0.38875366395 -0.3570176552 -0.31436893093 -0.26938052396 -0.22962470603 
-0.19864156936 -0.17844728108 -0.16565970351 -0.15916614075 -0.16095376395 -0.16922816439 -0.17938868113 -0.18597804465 -0.18553069396 
-0.17410186273 -0.15840149376 -0.14128246963 -0.123264037 -0.10498994777 -0.087219692594 -0.070820326496 -0.056792341261 -0.046182184212 
-0.039754254132 -0.037479930966 -0.038291951202 -0.040491128588 -0.042451932015 -0.041889326205 -0.039815719927 -0.037370241988 -0.035598680838 
-0.035432934009 -0.037463163364 -0.041584020413 -0.046823287735 -0.051634481762 -0.054517516513 -0.053983513712 -0.049628332238 -0.0433688508 
-0.035999201912 -0.028292099988 -0.020913047014 -0.014431022157 -0.009372935403 -0.0062273227556 -0.0053138872474 -0.0065478198877 -0.0093013324837 
-0.012564878478 -0.015361554115 -0.016805228413 -0.016531131766 -0.015038229433 -0.012955533518 -0.010918276034 -0.0094881701276 -0.0090740888466 
-0.009838969433 -0.011628631863 -0.013986792586 -0.016283215034 -0.017911489114 -0.018201854437 -0.016992281576 -0.01469880078 -0.011700316229 
-0.0084353794241 -0.0053281300882 -0.0027587913181 -0.0010394952221 -0.00037259393996 -0.000787704943 -0.0020943175147 -0.0039101534535 -0.0057678982594 
-0.007265693527 -0.0080133664349 -0.0078947762738 -0.0071224255869 -0.005993022343 -0.0048191675853 -0.0038672904417 -0.0033017644504 -0.0031390328562 
0.20208822334 0.30698245304 0.31897270276 0.34008235397 0.37376900431 0.42572475439 0.50392567086 0.62529691242 0.58978176758 
0 -0.37827256934 -0.37180928059 -0.37015854394 -0.37590151215 -0.36974543201 -0.35026535381 -0.32665982014 -0.30440452775 
-0.28501341557 -0.26565153805 -0.24648180889 -0.22339295088 -0.19956532268 -0.18017195079 -0.16713092998 -0.16023687145 -0.15714529553 
-0.15456871554 -0.14991729076 -0.13951439863 -0.12744738693 -0.11434076188 -0.10091848292 -0.088107371452 -0.077025952038 -0.068912605572 
-0.064716551283 -0.064432595968 -0.066758025067 -0.069589575184 -0.070975195839 -0.068680336161 -0.063528341458 -0.056677157019 -0.049247935365 
-0.04228161821 -0.036766694791 -0.033555770153 -0.033086886978 -0.035059804196 -0.038364785632 -0.041481222405 -0.043046573887 -0.04161519765 
-0.038043452396 -0.033075968959 -0.027479591798 -0.021994087356 -0.017323741762 -0.014138336647 -0.012984996931 -0.014065623004 -0.017005956496 
-0.020860305579 -0.024440866986 -0.026771625176 -0.026918389239 -0.025059035855 -0.021800797547 -0.017855432771 -0.013911467395 -0.010571165414 
-0.0083054921994 -0.0073871958075 -0.0078085357322 -0.00924594503 -0.011134528949 -0.012836156012 -0.013818476777 -0.013524313386 -0.012217413506 
-0.010205515975 -0.0078961541191 -0.0057159361285 -0.0040623816604 -0.0032546727274 -0.0034709899063 -0.0046788839338 -0.0066111010002 -0.0088175512111 
-0.010795376957 -0.012141157919 -0.012444347783 -0.011686248842 -0.010116927631 -0.0080774006681 -0.0059269867401 -0.0039838639682 -0.0024757703031 
-0.0015084984486 0.20503966228 0.31121115862 0.32277281077 0.34271894824 0.37342522781 0.41802348379 0.47846993169 0.54032370878 
0.55426662274 0.42134723126 0 -0.35685549605 -0.34190171152 -0.34048199146 -0.33534429771 -0.33153004265 -0.33376545024 
-0.33965475089 -0.34331387077 -0.33238547746 -0.30445532898 -0.26861676539 -0.22971821034 -0.19269378841 -0.16129207753 -0.13794455867 
-0.12297817077 -0.11437963833 -0.10897830446 -0.10461393005 -0.098280220955 -0.091188225344 -0.084471490618 -0.079278416677 -0.076777961654 
-0.077879160304 -0.082510120617 -0.089113591523 -0.095099853532 -0.098097967694 -0.095887948605 -0.088147728181 -0.078034364378 -0.066624430224 
-0.054959767471 -0.043954968234 -0.034442743157 -0.027209607011 -0.022892612682 -0.021689967245 -0.023054000277 -0.025766900082 -0.028417169233 
-0.029642236658 -0.028683173411 -0.026307216816 -0.023209259711 -0.020168645864 -0.017977109739 -0.017360167611 -0.01878674132 -0.022204839686 
-0.026900044456 -0.031673519409 -0.035271067462 -0.036775313321 -0.035295717853 -0.031639587863 -0.026543132446 -0.020803302198 -0.015143714366 
-0.010165380657 -0.006336865732 -0.0039693316893 -0.0031511165566 -0.0036832109117 -0.0050921036148 -0.0067651755791 -0.0081485030132 -0.0086869219632 
-0.0083234668867 -0.0073269853818 -0.0060772945742 -0.0049897267891 -0.0044521667627 -0.004755251928 -0.0060169175124 -0.0081220765526 -0.010719728025 
-0.013302231354 -0.01535110377 -0.016470784458 -0.016223055264 -0.014758866714 -0.012373402355 -0.0094534393725 -0.0064003500298 -0.0035728088695 
-0.0012465946143 0.0004001892432 0.20362291468 0.30837666269 0.31780109735 0.33341536221 0.35586644274 0.38474278765 0.41525034932 
0.42761759726 0.3893384026 0.28842783978 -0.093067788826 -0.3706846908 -0.32483025937 -0.31737294443 -0.30898546431 -0.31327702108 
-0.33596599493 -0.36671649965 -0.38398894604 -0.36410325328 -0.32895254048 -0.28474776166 -0.23669548784 -0.18958918466 -0.14744375252 
-0.11337613359 -0.089013528793 -0.073677393055 -0.064618262877 -0.059367378851 -0.057483035503 -0.056197017976 -0.057369221008 -0.062118766314 
-0.070929820006 -0.083412211011 -0.097680102064 -0.11049529881 -0.11847267798 -0.11946262572 -0.11132132474 -0.099086534426 -0.084769402619 
-0.069723457515 -0.054954628463 -0.041222276125 -0.029135085478 -0.019253903144 -0.012133745215 -0.0081780795791 -0.0073363047493 -0.0088842807105 
-0.011609432954 -0.014369718316 -0.015762496654 -0.015865436199 -0.015404372399 -0.015178182423 -0.015986712324 -0.018479249059 -0.022896845252 
-0.02883778432 -0.035257356672 -0.04079036668 -0.044230512994 -0.044445748108 -0.041231760449 -0.035772573781 -0.028952905271 -0.021650306648 
-0.014603046141 -0.0083761208697 -0.003383235553 9.2963750408e-05 0.0019282253223 0.0022238273541 0.0013430312172 -0.00017136257558 -0.0017756667395 
-0.0029187217432 -0.0033503327249 -0.003297567843 -0.0031100256676 -0.0031771692591 -0.0038505489942 -0.0053603439265 -0.0077381348226 -0.010771603353 
-0.014025913994 -0.016951981129 -0.019019404161 -0.019827020053 -0.018968918942 -0.016791782526 -0.013638573734 -0.0099406875586 -0.0061317439225 
-0.0025933423235 0.00037382637656 0.0025467998227 0.198585489 0.29977821496 0.30595686719 0.31548964172 0.32751713441 0.33923099232 
0.34302250722 0.32046338954 0.23508149492 0.012393689379 -0.47456341743 -0.41653912224 -0.33138201878 -0.3040719537 -0.29404082043 
-0.30593723701 -0.33918332582 -0.3755453459 -0.38046409319 -0.35839837135 -0.32128230813 -0.2754497921 -0.22595587621 -0.17702352324 
-0.13214005769 -0.094211352045 -0.065289574379 -0.04529659671 -0.031587102881 -0.021997159192 -0.017907456462 -0.020187402122 -0.028937994331 
-0.044096932269 -0.064345074836 -0.087373791317 -0.10945714378 -0.12620088988 -0.13420279824 -0.12946135784 -0.11722391106 -0.10161370386 
-0.084596414369 -0.067490597118 -0.051171366544 -0.036210661629 -0.022987967558 -0.011806934748 -0.0030051067739 0.0030471617737 0.0061210109203 
0.0064251730973 0.0046797844407 0.0017693152342 -0.00099348271814 -0.0030773212542 -0.005128745454 -0.0078417078012 -0.011888891635 -0.01769745097 