# vtk DataFile Version 4.1
vtk output
ASCII
DATASET STRUCTURED_GRID
DIMENSIONS 51 51 1
POINTS 2601 float
0 0 0 0.02 0 0 0.04 0 0 
0.06 0 0 0.08 0 0 0.1 0 0 
0.12 0 0 0.14 0 0 0.16 0 0 
0.18 0 0 0.2 0 0 0.22 0 0 
0.24 0 0 0.26 0 0 0.28 0 0 
0.3 0 0 0.32 0 0 0.34 0 0 
0.36 0 0 0.38 0 0 0.4 0 0 
0.42 0 0 0.44 0 0 0.46 0 0 
0.48 0 0 0.5 0 0 0.52 0 0 
0.54 0 0 0.56 0 0 0.58 0 0 
0.6 0 0 0.62 0 0 0.64 0 0 
0.66 0 0 0.68 0 0 0.7 0 0 
0.72 0 0 0.74 0 0 0.76 0 0 
0.78 0 0 0.8 0 0 0.82 0 0 
0.84 0 0 0.86 0 0 0.88 0 0 
0.9 0 0 0.92 0 0 0.94 0 0 
0.96 0 0 0.98 0 0 1 0 0 
0 0.02 0 0.02 0.02 0 0.04 0.02 0 
0.06 0.02 0 0.08 0.02 0 0.1 0.02 0 
0.12 0.02 0 0.14 0.02 0 0.16 0.02 0 
0.18 0.02 0 0.2 0.02 0 0.22 0.02 0 
0.24 0.02 0 0.26 0.02 0 0.28 0.02 0 
0.3 0.02 0 0.32 0.02 0 0.34 0.02 0 
0.36 0.02 0 0.38 0.02 0 0.4 0.02 0 
0.42 0.02 0 0.44 0.02 0 0.46 0.02 0 
0.48 0.02 0 0.5 0.02 0 0.52 0.02 0 
0.54 0.02 0 0.56 0.02 0 0.58 0.02 0 
0.6 0.02 0 0.62 0.02 0 0.64 0.02 0 
0.66 0.02 0 0.68 0.02 0 0.7 0.02 0 
0.72 0.02 0 0.74 0.02 0 0.76 0.02 0 
0.78 0.02 0 0.8 0.02 0 0.82 0.02 0 
0.84 0.02 0 0.86 0.02 0 0.88 0.02 0 
0.9 0.02 0 0.92 0.02 0 0.94 0.02 0 
0.96 0.02 0 0.98 0.02 0 1 0.02 0 
0 0.04 0 0.02 0.04 0 0.04 0.04 0 
0.06 0.04 0 0.08 0.04 0 0.1 0.04 0 
0.12 0.04 0 0.14 0.04 0 0.16 0.04 0 
0.18 0.04 0 0.2 0.04 0 0.22 0.04 0 
0.24 0.04 0 0.26 0.04 0 0.28 0.04 0 
0.3 0.04 0 0.32 0.04 0 0.34 0.04 0 
0.36 0.04 0 0.38 0.04 0 0.4 0.04 0 
0.42 0.04 0 0.44 0.04 0 0.46 0.04 0 
0.48 0.04 0 0.5 0.04 0 0.52 0.04 0 
0.54 0.04 0 0.56 0.04 0 0.58 0.04 0 
0.6 0.04 0 0.62 0.04 0 0.64 0.04 0 
0.66 0.04 0 0.68 0.04 0 0.7 0.04 0 
0.72 0.04 0 0.74 0.04 0 0.76 0.04 0 
0.78 0.04 0 0.8 0.04 0 0.82 0.04 0 
0.84 0.04 0 0.86 0.04 0 0.88 0.04 0 
0.9 0.04 0 0.92 0.04 0 0.94 0.04 0 
0.96 0.04 0 0.98 0.04 0 1 0.04 0 
0 0.06 0 0.02 0.06 0 0.04 0.06 0 
0.06 0.06 0 0.08 0.06 0 0.1 0.06 0 
0.12 0.06 0 0.14 0.06 0 0.16 0.06 0 
0.18 0.06 0 0.2 0.06 0 0.22 0.06 0 
0.24 0.06 0 0.26 0.06 0 0.28 0.06 0 
0.3 0.06 0 0.32 0.06 0 0.34 0.06 0 
0.36 0.06 0 0.38 0.06 0 0.4 0.06 0 
0.42 0.06 0 0.44 0.06 0 0.46 0.06 0 
0.48 0.06 0 0.5 0.06 0 0.52 0.06 0 
0.54 0.06 0 0.56 0.06 0 0.58 0.06 0 
0.6 0.06 0 0.62 0.06 0 0.64 0.06 0 
0.66 0.06 0 0.68 0.06 0 0.7 0.06 0 
0.72 0.06 0 0.74 0.06 0 0.76 0.06 0 
0.78 0.06 0 0.8 0.06 0 0.82 0.06 0 
0.84 0.06 0 0.86 0.06 0 0.88 0.06 0 
0.9 0.06 0 0.92 0.06 0 0.94 0.06 0 
0.96 0.06 0 0.98 0.06 0 1 0.06 0 
0 0.08 0 0.02 0.08 0 0.04 0.08 0 
0.06 0.08 0 0.08 0.08 0 0.1 0.08 0 
0.12 0.08 0 0.14 0.08 0 0.16 0.08 0 
0.18 0.08 0 0.2 0.08 0 0.22 0.08 0 
0.24 0.08 0 0.26 0.08 0 0.28 0.08 0 
0.3 0.08 0 0.32 0.08 0 0.34 0.08 0 
0.36 0.08 0 0.38 0.08 0 0.4 0.08 0 
0.42 0.08 0 0.44 0.08 0 0.46 0.08 0 
0.48 0.08 0 0.5 0.08 0 0.52 0.08 0 
0.54 0.08 0 0.56 0.08 0 0.58 0.08 0 
0.6 0.08 0 0.62 0.08 0 0.64 0.08 0 
0.66 0.08 0 0.68 0.08 0 0.7 0.08 0 
0.72 0.08 0 0.74 0.08 0 0.76 0.08 0 
0.78 0.08 0 0.8 0.08 0 0.82 0.08 0 
0.84 0.08 0 0.86 0.08 0 0.88 0.08 0 
0.9 0.08 0 0.92 0.08 0 0.94 0.08 0 
0.96 0.08 0 0.98 0.08 0 1 0.08 0 
0 0.1 0 0.02 0.1 0 0.04 0.1 0 
0.06 0.1 0 0.08 0.1 0 0.1 0.1 0 
0.12 0.1 0 0.14 0.1 0 0.16 0.1 0 
0.18 0.1 0 0.2 0.1 0 0.22 0.1 0 
0.24 0.1 0 0.26 0.1 0 0.28 0.1 0 
0.3 0.1 0 0.32 0.1 0 0.34 0.1 0 
0.36 0.1 0 0.38 0.1 0 0.4 0.1 0 
0.42 0.1 0 0.44 0.1 0 0.46 0.1 0 
0.48 0.1 0 0.5 0.1 0 0.52 0.1 0 
0.54 0.1 0 0.56 0.1 0 0.58 0.1 0 
0.6 0.1 0 0.62 0.1 0 0.64 0.1 0 
0.66 0.1 0 0.68 0.1 0 0.7 0.1 0 
0.72 0.1 0 0.74 0.1 0 0.76 0.1 0 
0.78 0.1 0 0.8 0.1 0 0.82 0.1 0 
0.84 0.1 0 0.86 0.1 0 0.88 0.1 0 
0.9 0.1 0 0.92 0.1 0 0.94 0.1 0 
0.96 0.1 0 0.98 0.1 0 1 0.1 0 
0 0.12 0 0.02 0.12 0 0.04 0.12 0 
0.06 0.12 0 0.08 0.12 0 0.1 0.12 0 
0.12 0.12 0 0.14 0.12 0 0.16 0.12 0 
0.18 0.12 0 0.2 0.12 0 0.22 0.12 0 
0.24 0.12 0 0.26 0.12 0 0.28 0.12 0 
0.3 0.12 0 0.32 0.12 0 0.34 0.12 0 
0.36 0.12 0 0.38 0.12 0 0.4 0.12 0 
0.42 0.12 0 0.44 0.12 0 0.46 0.12 0 
0.48 0.12 0 0.5 0.12 0 0.52 0.12 0 
0.54 0.12 0 0.56 0.12 0 0.58 0.12 0 
0.6 0.12 0 0.62 0.12 0 0.64 0.12 0 
0.66 0.12 0 0.68 0.12 0 0.7 0.12 0 
0.72 0.12 0 0.74 0.12 0 0.76 0.12 0 
0.78 0.12 0 0.8 0.12 0 0.82 0.12 0 
0.84 0.12 0 0.86 0.12 0 0.88 0.12 0 
0.9 0.12 0 0.92 0.12 0 0.94 0.12 0 
0.96 0.12 0 0.98 0.12 0 1 0.12 0 
0 0.14 0 0.02 0.14 0 0.04 0.14 0 
0.06 0.14 0 0.08 0.14 0 0.1 0.14 0 
0.12 0.14 0 0.14 0.14 0 0.16 0.14 0 
0.18 0.14 0 0.2 0.14 0 0.22 0.14 0 
0.24 0.14 0 0.26 0.14 0 0.28 0.14 0 
0.3 0.14 0 0.32 0.14 0 0.34 0.14 0 
0.36 0.14 0 0.38 0.14 0 0.4 0.14 0 
0.42 0.14 0 0.44 0.14 0 0.46 0.14 0 
0.48 0.14 0 0.5 0.14 0 0.52 0.14 0 
0.54 0.14 0 0.56 0.14 0 0.58 0.14 0 
0.6 0.14 0 0.62 0.14 0 0.64 0.14 0 
0.66 0.14 0 0.68 0.14 0 0.7 0.14 0 
0.72 0.14 0 0.74 0.14 0 0.76 0.14 0 
0.78 0.14 0 0.8 0.14 0 0.82 0.14 0 
0.84 0.14 0 0.86 0.14 0 0.88 0.14 0 
0.9 0.14 0 0.92 0.14 0 0.94 0.14 0 
0.96 0.14 0 0.98 0.14 0 1 0.14 0 
0 0.16 0 0.02 0.16 0 0.04 0.16 0 
0.06 0.16 0 0.08 0.16 0 0.1 0.16 0 
0.12 0.16 0 0.14 0.16 0 0.16 0.16 0 
0.18 0.16 0 0.2 0.16 0 0.22 0.16 0 
0.24 0.16 0 0.26 0.16 0 0.28 0.16 0 
0.3 0.16 0 0.32 0.16 0 0.34 0.16 0 
0.36 0.16 0 0.38 0.16 0 0.4 0.16 0 
0.42 0.16 0 0.44 0.16 0 0.46 0.16 0 
0.48 0.16 0 0.5 0.16 0 0.52 0.16 0 
0.54 0.16 0 0.56 0.16 0 0.58 0.16 0 
0.6 0.16 0 0.62 0.16 0 0.64 0.16 0 
0.66 0.16 0 0.68 0.16 0 0.7 0.16 0 
0.72 0.16 0 0.74 0.16 0 0.76 0.16 0 
0.78 0.16 0 0.8 0.16 0 0.82 0.16 0 
0.84 0.16 0 0.86 0.16 0 0.88 0.16 0 
0.9 0.16 0 0.92 0.16 0 0.94 0.16 0 
0.96 0.16 0 0.98 0.16 0 1 0.16 0 
0 0.18 0 0.02 0.18 0 0.04 0.18 0 
0.06 0.18 0 0.08 0.18 0 0.1 0.18 0 
0.12 0.18 0 0.14 0.18 0 0.16 0.18 0 
0.18 0.18 0 0.2 0.18 0 0.22 0.18 0 
0.24 0.18 0 0.26 0.18 0 0.28 0.18 0 
0.3 0.18 0 0.32 0.18 0 0.34 0.18 0 
0.36 0.18 0 0.38 0.18 0 0.4 0.18 0 
0.42 0.18 0 0.44 0.18 0 0.46 0.18 0 
0.48 0.18 0 0.5 0.18 0 0.52 0.18 0 
0.54 0.18 0 0.56 0.18 0 0.58 0.18 0 
0.6 0.18 0 0.62 0.18 0 0.64 0.18 0 
0.66 0.18 0 0.68 0.18 0 0.7 0.18 0 
0.72 0.18 0 0.74 0.18 0 0.76 0.18 0 
0.78 0.18 0 0.8 0.18 0 0.82 0.18 0 
0.84 0.18 0 0.86 0.18 0 0.88 0.18 0 
0.9 0.18 0 0.92 0.18 0 0.94 0.18 0 
0.96 0.18 0 0.98 0.18 0 1 0.18 0 
0 0.2 0 0.02 0.2 0 0.04 0.2 0 
0.06 0.2 0 0.08 0.2 0 0.1 0.2 0 
0.12 0.2 0 0.14 0.2 0 0.16 0.2 0 
0.18 0.2 0 0.2 0.2 0 0.22 0.2 0 
0.24 0.2 0 0.26 0.2 0 0.28 0.2 0 
0.3 0.2 0 0.32 0.2 0 0.34 0.2 0 
0.36 0.2 0 0.38 0.2 0 0.4 0.2 0 
0.42 0.2 0 0.44 0.2 0 0.46 0.2 0 
0.48 0.2 0 0.5 0.2 0 0.52 0.2 0 
0.54 0.2 0 0.56 0.2 0 0.58 0.2 0 
0.6 0.2 0 0.62 0.2 0 0.64 0.2 0 
0.66 0.2 0 0.68 0.2 0 0.7 0.2 0 
0.72 0.2 0 0.74 0.2 0 0.76 0.2 0 
0.78 0.2 0 0.8 0.2 0 0.82 0.2 0 
0.84 0.2 0 0.86 0.2 0 0.88 0.2 0 
0.9 0.2 0 0.92 0.2 0 0.94 0.2 0 
0.96 0.2 0 0.98 0.2 0 1 0.2 0 
0 0.22 0 0.02 0.22 0 0.04 0.22 0 
0.06 0.22 0 0.08 0.22 0 0.1 0.22 0 
0.12 0.22 0 0.14 0.22 0 0.16 0.22 0 
0.18 0.22 0 0.2 0.22 0 0.22 0.22 0 
0.24 0.22 0 0.26 0.22 0 0.28 0.22 0 
0.3 0.22 0 0.32 0.22 0 0.34 0.22 0 
0.36 0.22 0 0.38 0.22 0 0.4 0.22 0 
0.42 0.22 0 0.44 0.22 0 0.46 0.22 0 
0.48 0.22 0 0.5 0.22 0 0.52 0.22 0 
0.54 0.22 0 0.56 0.22 0 0.58 0.22 0 
0.6 0.22 0 0.62 0.22 0 0.64 0.22 0 
0.66 0.22 0 0.68 0.22 0 0.7 0.22 0 
0.72 0.22 0 0.74 0.22 0 0.76 0.22 0 
0.78 0.22 0 0.8 0.22 0 0.82 0.22 0 
0.84 0.22 0 0.86 0.22 0 0.88 0.22 0 
0.9 0.22 0 0.92 0.22 0 0.94 0.22 0 
0.96 0.22 0 0.98 0.22 0 1 0.22 0 
0 0.24 0 0.02 0.24 0 0.04 0.24 0 
0.06 0.24 0 0.08 0.24 0 0.1 0.24 0 
0.12 0.24 0 0.14 0.24 0 0.16 0.24 0 
0.18 0.24 0 0.2 0.24 0 0.22 0.24 0 
0.24 0.24 0 0.26 0.24 0 0.28 0.24 0 
0.3 0.24 0 0.32 0.24 0 0.34 0.24 0 
0.36 0.24 0 0.38 0.24 0 0.4 0.24 0 
0.42 0.24 0 0.44 0.24 0 0.46 0.24 0 
0.48 0.24 0 0.5 0.24 0 0.52 0.24 0 
0.54 0.24 0 0.56 0.24 0 0.58 0.24 0 
0.6 0.24 0 0.62 0.24 0 0.64 0.24 0 
0.66 0.24 0 0.68 0.24 0 0.7 0.24 0 
0.72 0.24 0 0.74 0.24 0 0.76 0.24 0 
0.78 0.24 0 0.8 0.24 0 0.82 0.24 0 
0.84 0.24 0 0.86 0.24 0 0.88 0.24 0 
0.9 0.24 0 0.92 0.24 0 0.94 0.24 0 
0.96 0.24 0 0.98 0.24 0 1 0.24 0 
0 0.26 0 0.02 0.26 0 0.04 0.26 0 
0.06 0.26 0 0.08 0.26 0 0.1 0.26 0 
0.12 0.26 0 0.14 0.26 0 0.16 0.26 0 
0.18 0.26 0 0.2 0.26 0 0.22 0.26 0 
0.24 0.26 0 0.26 0.26 0 0.28 0.26 0 
0.3 0.26 0 0.32 0.26 0 0.34 0.26 0 
0.36 0.26 0 0.38 0.26 0 0.4 0.26 0 
0.42 0.26 0 0.44 0.26 0 0.46 0.26 0 
0.48 0.26 0 0.5 0.26 0 0.52 0.26 0 
0.54 0.26 0 0.56 0.26 0 0.58 0.26 0 
0.6 0.26 0 0.62 0.26 0 0.64 0.26 0 
0.66 0.26 0 0.68 0.26 0 0.7 0.26 0 
0.72 0.26 0 0.74 0.26 0 0.76 0.26 0 
0.78 0.26 0 0.8 0.26 0 0.82 0.26 0 
0.84 0.26 0 0.86 0.26 0 0.88 0.26 0 
0.9 0.26 0 0.92 0.26 0 0.94 0.26 0 
0.96 0.26 0 0.98 0.26 0 1 0.26 0 
0 0.28 0 0.02 0.28 0 0.04 0.28 0 
0.06 0.28 0 0.08 0.28 0 0.1 0.28 0 
0.12 0.28 0 0.14 0.28 0 0.16 0.28 0 
0.18 0.28 0 0.2 0.28 0 0.22 0.28 0 
0.24 0.28 0 0.26 0.28 0 0.28 0.28 0 
0.3 0.28 0 0.32 0.28 0 0.34 0.28 0 
0.36 0.28 0 0.38 0.28 0 0.4 0.28 0 
0.42 0.28 0 0.44 0.28 0 0.46 0.28 0 
0.48 0.28 0 0.5 0.28 0 0.52 0.28 0 
0.54 0.28 0 0.56 0.28 0 0.58 0.28 0 
0.6 0.28 0 0.62 0.28 0 0.64 0.28 0 
0.66 0.28 0 0.68 0.28 0 0.7 0.28 0 
0.72 0.28 0 0.74 0.28 0 0.76 0.28 0 
0.78 0.28 0 0.8 0.28 0 0.82 0.28 0 
0.84 0.28 0 0.86 0.28 0 0.88 0.28 0 
0.9 0.28 0 0.92 0.28 0 0.94 0.28 0 
0.96 0.28 0 0.98 0.28 0 1 0.28 0 
0 0.3 0 0.02 0.3 0 0.04 0.3 0 
0.06 0.3 0 0.08 0.3 0 0.1 0.3 0 
0.12 0.3 0 0.14 0.3 0 0.16 0.3 0 
0.18 0.3 0 0.2 0.3 0 0.22 0.3 0 
0.24 0.3 0 0.26 0.3 0 0.28 0.3 0 
0.3 0.3 0 0.32 0.3 0 0.34 0.3 0 
0.36 0.3 0 0.38 0.3 0 0.4 0.3 0 
0.42 0.3 0 0.44 0.3 0 0.46 0.3 0 
0.48 0.3 0 0.5 0.3 0 0.52 0.3 0 
0.54 0.3 0 0.56 0.3 0 0.58 0.3 0 
0.6 0.3 0 0.62 0.3 0 0.64 0.3 0 
0.66 0.3 0 0.68 0.3 0 0.7 0.3 0 
0.72 0.3 0 0.74 0.3 0 0.76 0.3 0 
0.78 0.3 0 0.8 0.3 0 0.82 0.3 0 
0.84 0.3 0 0.86 0.3 0 0.88 0.3 0 
0.9 0.3 0 0.92 0.3 0 0.94 0.3 0 
0.96 0.3 0 0.98 0.3 0 1 0.3 0 
0 0.32 0 0.02 0.32 0 0.04 0.32 0 
0.06 0.32 0 0.08 0.32 0 0.1 0.32 0 
0.12 0.32 0 0.14 0.32 0 0.16 0.32 0 
0.18 0.32 0 0.2 0.32 0 0.22 0.32 0 
0.24 0.32 0 0.26 0.32 0 0.28 0.32 0 
0.3 0.32 0 0.32 0.32 0 0.34 0.32 0 
0.36 0.32 0 0.38 0.32 0 0.4 0.32 0 
0.42 0.32 0 0.44 0.32 0 0.46 0.32 0 
0.48 0.32 0 0.5 0.32 0 0.52 0.32 0 
0.54 0.32 0 0.56 0.32 0 0.58 0.32 0 
[...]
CELL_DATA 2500
FIELD FieldData 2
pressure 1 2500 double
0.56636281087 0.56636255967 0.56636246385 0.56636265284 0.56636317074 0.56636400897 0.56636512559 0.56636646319 0.56636796647 
0.56636959425 0.56637132145 0.56637313257 0.56637501244 0.56637694087 0.56637889315 0.56638084463 0.56638277534 0.56638467202 
0.56638652724 0.56638833705 0.56639009872 0.56639180957 0.56639346671 0.56639506731 0.56639660888 0.56639808957 0.5663995081 
0.56640086363 0.5664021555 0.56640338295 0.56640454491 0.56640563998 0.56640666638 0.56640762199 0.56640850443 0.5664093111 
0.56641003919 0.56641068581 0.56641124801 0.56641172297 0.56641210819 0.56641240182 0.56641260314 0.56641271318 0.56641273575 
0.56641267893 0.5664125574 0.56641239595 0.56641223421 0.56641213038 0.54436752453 0.54436715236 0.5443669958 0.54436711193 
0.54436751752 0.54436819325 0.54436909916 0.54437019252 0.54437144012 0.54437282054 0.54437431828 0.54437591615 0.54437759141 
0.5443793174 0.54438106828 0.54438282319 0.54438456768 0.5443862925 0.54438799133 0.5443896589 0.54439129012 0.54439288 
0.5443944241 0.54439591871 0.54439736102 0.544398749 0.54440008117 0.54440135629 0.54440257314 0.54440373033 0.54440482627 
0.54440585915 0.54440682699 0.54440772762 0.54440855875 0.54440931795 0.54441000269 0.54441061037 0.54441113851 0.54441158483 
0.54441194753 0.54441222556 0.54441241909 0.54441253002 0.54441256281 0.54441252553 0.54441243126 0.54441229964 0.544412158 
0.54441204027 0.52237205532 0.52237153817 0.52237129533 0.52237132684 0.52237161545 0.52237212994 0.52237283787 0.52237371572 
0.52237474954 0.52237592797 0.52237723446 0.52237864465 0.52238012969 0.52238166229 0.52238322112 0.52238479162 0.52238636402 
0.52238793068 0.52238948433 0.52239101757 0.52239252333 0.52239399528 0.5223954284 0.52239681891 0.52239816399 0.52239946151 
0.5224007096 0.52240190647 0.52240305026 0.52240413902 0.52240517074 0.52240614336 0.52240705479 0.52240790285 0.52240868529 
0.52240939976 0.52241004386 0.5224106152 0.52241111157 0.52241153104 0.52241187221 0.52241213446 0.52241231824 0.52241242557 
0.52241246048 0.52241242964 0.52241234293 0.52241221371 0.52241205812 0.52241189238 0.50037630916 0.50037568807 0.50037536379 
0.50037530145 0.500375464 0.50037582034 0.50037635211 0.50037705211 0.50037791497 0.5003789278 0.50038006708 0.50038130301 
0.50038260697 0.50038395687 0.50038533811 0.50038674102 0.5003881576 0.50038957947 0.50039099756 0.50039240287 0.5003937875 
0.50039514496 0.50039647039 0.50039776018 0.50039901147 0.50040022177 0.50040138866 0.50040250976 0.50040358265 0.500404605 
0.50040557456 0.50040648913 0.50040734654 0.50040814457 0.5004088809 0.5004095532 0.50041015908 0.50041069628 0.50041116273 
0.50041155668 0.5004118769 0.50041212283 0.50041229485 0.50041239449 0.50041242479 0.50041239042 0.50041229782 0.50041215469 
0.50041196878 0.50041174508 0.478380268 0.47837958619 0.47837918969 0.47837902875 0.47837906542 0.47837927977 0.47837966719 
0.47838022729 0.47838095211 0.47838182132 0.47838280606 0.47838387714 0.47838501161 0.47838619445 0.47838741615 0.47838866893 
0.4783899442 0.47839123209 0.47839252232 0.47839380548 0.47839507383 0.47839632148 0.47839754387 0.47839873745 0.47839989906 
0.4784010257 0.4784021144 0.47840316228 0.47840416661 0.47840512487 0.47840603465 0.47840689366 0.4784076996 0.47840845012 
0.47840914281 0.47840977527 0.47841034511 0.47841085011 0.47841128824 0.47841165781 0.47841195754 0.47841218671 0.47841234531 
0.47841243416 0.47841245504 0.47841241061 0.47841230422 0.47841213924 0.47841191775 0.47841163841 0.45638394214 0.45638322659 
0.45638276434 0.4563825086 0.45638243408 0.45638253449 0.45638281148 0.45638326126 0.45638386767 0.45638460452 0.45638544344 
0.45638636112 0.45638734195 0.45638837621 0.45638945637 0.45639057419 0.45639171978 0.45639288235 0.45639405158 0.45639521866 
0.45639637664 0.45639752023 0.45639864506 0.45639974734 0.45640082347 0.45640186997 0.45640288347 0.45640386087 0.45640479928 
0.45640569607 0.45640654873 0.4564073548 0.4564081118 0.45640881723 0.45640946858 0.45641006336 0.45641059917 0.45641107378 
0.45641148512 0.45641183141 0.45641211119 0.45641232343 0.45641246761 0.45641254373 0.45641255232 0.45641249427 0.45641237051 
0.45641218131 0.45641192525 0.45641159772 0.4343873469 0.43438661019 0.43438609007 0.43438575507 0.43438559591 0.43438561389 
0.43438580764 0.43438616474 0.43438666243 0.43438727444 0.43438797814 0.43438875772 0.43438960309 0.4343905067 0.43439146067 
0.43439245555 0.43439348073 0.43439452564 0.43439558087 0.43439663872 0.43439769303 0.43439873885 0.43439977173 0.4344007875 
0.43440178218 0.43440275199 0.43440369343 0.43440460332 0.43440547872 0.43440631689 0.43440711515 0.43440787085 0.43440858133 
0.43440924397 0.43440985614 0.43441041532 0.43441091906 0.43441136503 0.43441175107 0.43441207523 0.43441233578 0.43441253132 
0.43441266077 0.43441272333 0.43441271846 0.4344126456 0.43441250387 0.43441229151 0.43441200507 0.43441163844 0.41239049644 
0.41238974628 0.4123891831 0.41238879426 0.4123885806 0.41238854207 0.41238866901 0.41238894188 0.4123893371 0.41238983367 
0.41239041641 0.41239107525 0.41239180258 0.41239259066 0.4123934305 0.412394312 0.41239522491 0.41239615977 0.41239710853 
0.41239806453 0.41239902213 0.41239997637 0.41240092258 0.41240185633 0.41240277344 0.4124036701 0.41240454282 0.4124053884 
0.41240620384 0.41240698624 0.41240773274 0.41240844052 0.41240910679 0.41240972883 0.41241030394 0.41241082954 0.41241130309 
0.41241172214 0.41241208438 0.41241238763 0.41241262989 0.41241280936 0.41241292442 0.41241297359 0.4124129554 0.4124128682 
0.41241270987 0.41241247734 0.41241216609 0.41241176949 0.39039340655 0.39039265425 0.39039207054 0.39039165635 0.39039141332 
0.39039133418 0.39039140205 0.39039159585 0.39039189667 0.39039229076 0.39039276885 0.39039332363 0.39039394755 0.39039463193 
0.39039536719 0.39039614362 0.39039695219 0.39039778497 0.39039863513 0.39039949671 0.39040036425 0.39040123261 0.39040209704 
0.39040295304 0.39040379648 0.39040462365 0.39040543112 0.39040621565 0.39040697412 0.39040770348 0.39040840072 0.39040906291 
0.39040968718 0.39041027075 0.39041081087 0.39041130485 0.39041175004 0.39041214385 0.39041248379 0.39041276746 0.39041299257 
0.39041315696 0.39041325853 0.3904132952 0.39041326481 0.39041316488 0.39041299247 0.39041274374 0.39041241367 0.3904119956 
0.36839609913 0.36839536228 0.36839478348 0.3683943678 0.36839411094 0.36839399851 0.36839401156 0.36839413307 0.36839435107 
0.36839465783 0.36839504706 0.36839551182 0.36839604379 0.36839663383 0.36839727276 0.36839795216 0.36839866456 0.36839940339 
0.36840016269 0.3684009368 0.3684017203 0.36840250801 0.36840329525 0.3684040777 0.36840485144 0.36840561285 0.36840635851 
0.36840708512 0.36840778944 0.36840846831 0.36840911866 0.36840973751 0.36841032194 0.36841086912 0.36841137622 0.36841184045 
0.36841225902 0.36841262922 0.36841294838 0.36841321387 0.36841342317 0.36841357376 0.36841366314 0.36841368876 0.36841364791 
0.36841353757 0.36841335423 0.36841309366 0.36841275066 0.36841231879 0.34639860345 0.34639790256 0.34639735024 0.34639694778 
0.34639668385 0.34639654148 0.34639650512 0.34639656443 0.34639671346 0.34639694768 0.34639726142 0.34639764717 0.34639809626 
0.34639860002 0.34639915056 0.34639974106 0.3464003655 0.34640101827 0.34640169385 0.34640238675 0.34640309165 0.34640380359 
0.34640451811 0.34640523124 0.34640593921 0.34640663847 0.34640732559 0.3464079972 0.34640864999 0.3464092808 0.34640988654 
0.34641046422 0.3464110109 0.34641152365 0.34641199959 0.34641243581 0.34641282943 0.34641317759 0.34641347748 0.34641372628 
0.34641392121 0.34641405947 0.34641413825 0.34641415462 0.34641410546 0.34641398738 0.34641379655 0.34641352855 0.34641317817 
0.34641273929 0.32440095308 0.32440030564 0.32439979291 0.3243994094 0.32439914051 0.32439897197 0.32439889457 0.32439890399 
0.32439899772 0.32439917199 0.32439942072 0.32439973611 0.32440011006 0.3244005352 0.3244010053 0.32440151503 0.32440205938 
0.3244026333 0.32440323153 0.32440384883 0.3244044802 0.32440512107 0.32440576729 0.3244064152 0.32440706116 0.32440770166 
0.32440833325 0.32440895254 0.3244095563 0.32441014137 0.32441070469 0.32441124327 0.32441175412 0.32441223428 0.32441268077 
0.32441309061 0.32441346084 0.32441378849 0.3244140706 0.32441430418 0.32441448626 0.32441461381 0.32441468373 0.32441469283 
0.32441463771 0.32441451474 0.32441431991 0.32441404872 0.32441369608 0.32441325616 0.30240318056 0.30240259666 0.30240212774 
0.30240176362 0.30240149152 0.30240130304 0.30240119506 0.30240116686 0.30240121687 0.30240134096 0.30240153277 0.30240178508 
0.30240209112 0.30240244525 0.30240284277 0.30240327944 0.30240375086 0.30240425231 0.30240477887 0.30240532574 0.30240588841 
0.30240646276 0.30240704493 0.3024076315 0.30240821894 0.30240880376 0.30240938258 0.30240995211 0.30241050918 0.30241105072 
0.30241157368 0.30241207507 0.30241255188 0.3024130011 0.30241341971 0.30241380468 0.30241415299 0.30241446157 0.30241472733 
0.30241494717 0.30241511792 0.30241523638 0.30241529926 0.30241530315 0.3024152445 0.30241511949 0.30241492403 0.30241465365 
0.30241430337 0.30241386769 0.28040531299 0.28040479467 0.28040436804 0.28040402269 0.28040375109 0.28040355093 0.2804034229 
0.28040336743 0.28040338257 0.28040346383 0.28040360533 0.2804038012 0.28040404643 0.28040433698 0.28040466934 0.28040503989 
0.28040544465 0.28040587927 0.28040633935 0.28040682066 0.28040731923 0.28040783139 0.28040835348 0.28040888226 0.28040941431 
0.28040994629 0.28041047492 0.28041099708 0.2804115097 0.28041200975 0.28041249424 0.28041296016 0.28041340452 0.28041382429 
0.28041421645 0.28041457794 0.28041490567 0.28041519651 0.28041544728 0.28041565475 0.28041581566 0.28041592665 0.28041598429 
0.28041598505 0.28041592522 0.28041580094 0.28041560806 0.28041534216 0.28041499843 0.28041457162 0.25840737056 0.25840691445 
0.25840652703 0.25840620146 0.25840593614 0.25840573284 0.25840559365 0.25840551863 0.25840550531 0.25840554951 0.25840564659 
0.25840579243 0.25840598372 0.25840621767 0.25840649147 0.25840680196 0.25840714554 0.25840751842 0.25840791683 0.25840833717 
0.25840877598 0.25840922989 0.25840969554 0.25841016969 0.25841064922 0.25841113096 0.25841161184 0.25841208886 0.25841255904 
0.25841301945 0.25841346713 0.25841389912 0.25841431244 0.25841470411 0.2584150711 0.25841541033 0.25841571869 0.25841599298 
0.25841622999 0.2584164264 0.25841657885 0.25841668392 0.25841673806 0.25841673766 0.25841667893 0.25841655796 0.25841637063 
0.25841611258 0.25841577915 0.25841536533 0.23640936795 0.2364089691 0.23640861924 0.23640831667 0.2364080641 0.23640786496 
0.23640772108 0.23640763188 0.23640759492 0.23640760705 0.23640766531 0.2364077673 0.23640791105 0.23640809457 0.23640831552 
0.23640857116 0.23640885844 0.23640917425 0.23640951549 0.23640987913 0.23641026211 0.23641066134 0.2364110737 0.23641149611 
0.23641192575 0.23641235967 0.236412795 0.23641322888 0.23641365844 0.23641408083 0.23641449316 0.23641489255 0.23641527608 
0.2364156408 0.23641598371 0.23641630174 0.23641659176 0.23641685057 0.2364170749 0.23641726142 0.23641740672 0.23641750729 
0.23641755955 0.23641755981 0.23641750428 0.23641738903 0.23641720997 0.23641696283 0.23641664309 0.2364162459 0.21441131708 
0.21441097187 0.21441066033 0.21441038516 0.21441015106 0.21440996136 0.21440981712 0.21440971754 0.21440966095 0.21440964571 
0.21440967054 0.21440973444 0.2144098363 0.21440997467 0.21441014765 0.21441035303 0.21441058845 0.21441085149 0.21441113969 
0.21441145046 0.21441178109 0.21441212876 0.21441249066 0.21441286393 0.21441324607 0.21441363436 0.21441402612 0.21441441861 
0.2144148091 0.21441519486 0.2144155731 0.21441594103 0.21441629581 0.21441663455 0.21441695429 0.21441725198 0.21441752453 
0.21441776874 0.21441798134 0.214418159 0.21441829827 0.21441839562 0.21441844744 0.21441845004 0.21441839962 0.21441829228 
0.21441812397 0.21441789051 0.21441758749 0.21441721022 0.19241322952 0.19241293676 0.19241266596 0.19241242242 0.19241221091 
0.19241203398 0.19241189222 0.19241178531 0.19241171287 0.19241167481 0.19241167125 0.19241170212 0.19241176692 0.19241186462 
0.19241199386 0.1924121531 0.19241234072 0.19241255493 0.19241279376 0.19241305502 0.19241333632 0.1924136352 0.19241394916 
0.19241427563 0.1924146124 0.19241495698 0.19241530684 0.19241565944 0.19241601218 0.19241636247 0.19241670766 0.19241704506 
0.19241737192 0.19241768544 0.1924179827 0.19241826073 0.19241851649 0.1924187468 0.19241894845 0.19241911808 0.19241925227 
0.19241934749 0.19241940016 0.19241940657 0.19241936298 0.19241926551 0.19241911019 0.19241889291 0.19241860937 0.19241825499 
0.17041511766 0.17041487801 0.17041465073 0.17041444187 0.17041425541 0.1704140932 0.17041395606 0.17041384465 0.17041376002 
0.17041370343 0.17041367595 0.17041367812 0.17041370989 0.17041377076 0.17041386004 0.17041397691 0.17041412038 0.17041428922 
0.17041448188 0.17041469653 0.17041493116 0.17041518368 0.17041545195 0.17041573367 0.1704160269 0.17041632938 0.17041663876 
0.17041695269 0.17041726876 0.17041758451 0.17041789745 0.17041820502 0.17041850457 0.17041879338 0.17041906866 0.17041932751 
0.17041956696 0.1704197839 0.17041997514 0.17042013738 0.17042026725 0.17042036125 0.17042041583 0.17042042734 0.17042039209 
0.17042030624 0.17042016592 0.17041996707 0.17041970549 0.17041937672 0.14841699451 0.14841680929 0.14841662758 0.14841645503 
0.14841629476 0.14841614855 0.14841601794 0.14841590484 0.14841581154 0.14841574024 0.14841569261 0.14841566966 0.14841567182 
0.14841569925 0.14841575197 0.14841582982 0.14841593238 0.14841605885 0.14841620807 0.14841637861 0.14841656887 0.14841677716 
0.14841700169 0.14841724039 0.14841749161 0.14841775329 0.14841802334 0.14841829957 0.14841857978 0.14841886169 0.14841914295 
0.14841942113 0.14841969373 0.14841995815 0.14842021173 0.14842045166 0.14842067505 0.1484208789 0.14842106008 0.14842121538 
0.14842134146 0.14842143494 0.14842149231 0.14842151001 0.14842148438 0.14842141169 0.14842128813 0.14842110973 0.14842087239 
0.14842057173 0.12641887299 0.1264187431 0.12641860783 0.126418472 0.12641833837 0.12641820919 0.12641808702 0.12641797493 
0.1264178761 0.12641779329 0.12641772861 0.12641768351 0.12641765903 0.12641765605 0.12641767525 0.12641771703 0.12641778143 
0.12641786806 0.12641797616 0.12641810474 0.12641825262 0.12641841849 0.12641860088 0.12641879798 0.1264190084 0.12641923032 
0.12641946188 0.12641970113 0.12641994605 0.12642019453 0.12642044441 0.12642069341 0.1264209392 0.12642117932 0.12642141123 
0.12642163226 0.12642183963 0.12642203044 0.12642220169 0.12642235025 0.12642247291 0.12642256635 0.12642262717 0.1264226519 
0.12642263698 0.12642257875 0.1264224735 0.12642231738 0.12642210634 0.12642183609 0.10442076512 0.10442069053 0.10442060145 
0.10442050203 0.10442039524 0.10442028412 0.10442017227 0.10442006361 0.10441996184 0.1044198701 0.10441979087 0.10441972614 
0.10441967766 0.10441964693 0.10441963523 0.10441964343 0.10441967197 0.10441972087 0.10441978981 0.10441987825 0.10441998541 
0.10442011032 0.10442025184 0.10442040848 0.10442057899 0.10442076189 0.10442095555 0.10442115824 0.10442136814 0.10442158337 
0.10442180191 0.1044220217 0.10442224056 0.10442245621 0.10442266625 0.10442286815 0.10442305929 0.1044232369 0.1044233981 
0.10442353992 0.10442365927 0.10442375294 0.10442381765 0.10442385005 0.10442384667 0.104423804 0.10442371842 0.10442358617 
0.10442340333 0.10442316568 0.082422681612 0.082422661393 0.082422617516 0.082422553934 0.082422474157 0.082422382144 0.082422282292 
0.082422179018 0.082422076335 0.082421977669 0.08242188595 0.082421803786 0.082421733558 0.082421677373 0.082421636967 0.082421613624 
0.082421608179 0.08242162109 0.0824216525 0.082421702279 0.082421770033 0.082421855123 0.082421956693 0.082422073699 0.082422204889 
0.082422349208 0.082422505256 0.082422671533 0.08242284644 0.082423028287 0.082423215291 0.082423405572 0.08242359714 0.082423787889 
0.082423975593 0.082424157903 0.08242433235 0.082424496345 0.082424647177 0.082424782018 0.082424897924 0.082424991849 0.082425060652 
0.082425101108 0.082425109911 0.082425083673 0.082425018904 0.082424911978 0.082424759069 0.082424556052 0.060424631936 0.060424664486 
0.060424664495 0.060424636121 0.060424583624 0.060424511682 0.060424425167 0.060424328753 0.060424226653 0.060424122628 0.060424020126 
0.060423922376 0.060423832328 0.060423752549 0.060423685184 0.06042363191 0.060423593986 0.060423572316 0.06042356748 0.060423579742 
0.060423609064 0.06042365513 0.060423717396 0.060423795153 0.060423887362 0.060423993259 0.060424111699 0.06042424142 0.060424381059 
0.060424529153 0.06042468414 0.060424844348 0.060425007986 0.060425173144 0.060425337792 0.060425499782 0.060425656841 0.060425806572 
0.060425946448 0.060426073819 0.06042618592 0.060426279879 0.060426352729 0.060426401417 0.060426422806 0.06042641367 0.060426370671 
0.060426290325 0.060426168931 0.060426002471 0.038426624471 0.038426707947 0.038426750526 0.03842675682 0.038426731767 0.038426680547 
0.038426608268 0.038426519718 0.038426419318 0.038426311225 0.038426199403 0.038426087591 0.038425979211 0.038425877272 0.038425784281 
0.038425702319 0.038425633073 0.038425577886 0.038425537743 0.038425513273 0.038425504793 0.038425512309 0.038425535576 0.038425574215 
0.038425627446 0.038425694773 0.038425775308 0.038425868044 0.038425971865 0.038426085551 0.038426207766 0.03842633706 0.038426471858 
0.038426610466 0.038426751079 0.038426891772 0.03842703049 0.038427165046 0.038427293122 0.038427412275 0.038427519946 0.038427613469 
0.038427690084 0.038427746941 0.038427781099 0.038427789521 0.03842776905 0.038427716368 0.038427627926 0.038427499833 0.016428666778 
0.016428799335 0.016428883292 0.01642892379 0.016428926246 0.016428896077 0.016428838472 0.016428758332 0.016428660354 0.016428549124 
0.016428429091 0.016428304434 0.016428178947 0.016428055966 0.016427938379 0.016427828679 0.016427728987 0.016427641046 0.016427566206 
0.016427505439 0.016427459369 0.016427428373 0.016427412608 0.016427411955 0.0164274259 0.016427454201 0.016427496237 0.016427551268 
0.016427618439 0.016427696773 0.016427785175 0.016427882439 0.016427987216 0.016428098047 0.016428213382 0.016428331536 0.01642845069 
0.016428568891 0.016428684054 0.016428793975 0.016428896332 0.016428988699 0.016429068552 0.016429133272 0.016429180149 0.016429206365 
0.016429208975 0.016429184863 0.016429130661 0.016429042635 -0.0055692340932 -0.005569054145 -0.0055689298563 -0.0055688556423 -0.0055688258429 
-0.0055688349825 -0.0055688778333 -0.0055689493244 -0.0055690444253 -0.0055691581376 -0.0055692856183 -0.0055694223425 -0.0055695642063 -0.0055697075393 
-0.0055698490693 -0.0055699858969 -0.0055701155066 -0.0055702357892 -0.0055703450468 -0.0055704419627 -0.0055705255545 -0.0055705951199 -0.0055706502111 
-0.0055706906273 -0.0055707165876 -0.0055707280795 -0.0055707254373 -0.0055707091275 -0.005570679746 -0.0055706380173 -0.0055705847884 -0.0055705210282 
-0.0055704477896 -0.0055703662418 -0.0055702777021 -0.0055701836052 -0.005570085515 -0.0055699851289 -0.0055698842625 -0.0055697848536 -0.0055696889541 
-0.0055695987239 -0.0055695164213 -0.0055694443935 -0.0055693850913 -0.0055693410744 -0.005569315038 -0.0055693098622 -0.005569328694 -0.0055693750722 
-0.027567071408 -0.027566845574 -0.02756668193 -0.027566574619 -0.027566517924 -0.027566506384 -0.027566534693 -0.027566597543 -0.027566689564 
-0.027566805408 -0.027566939928 -0.027567088322 -0.027567246193 -0.027567409529 -0.027567574677 -0.027567738362 -0.027567897709 -0.02756805027 
-0.02756819401 -0.027568327269 -0.027568448722 -0.027568557343 -0.027568652377 -0.027568733319 -0.027568800094 -0.027568852416 -0.027568890332 
-0.027568914033 -0.027568923848 -0.027568920234 -0.027568903769 -0.027568875138 -0.027568835129 -0.027568784644 -0.027568724717 -0.027568656507 