# vtk DataFile Version 4.1
vtk output
ASCII
DATASET STRUCTURED_GRID
DIMENSIONS 101 51 1
POINTS 5151 float
0 0 0 0.02 0 0 0.04 0 0 
0.06 0 0 0.08 0 0 0.1 0 0 
0.12 0 0 0.14 0 0 0.16 0 0 
0.18 0 0 0.2 0 0 0.22 0 0 
0.24 0 0 0.26 0 0 0.28 0 0 
0.3 0 0 0.32 0 0 0.34 0 0 
0.36 0 0 0.38 0 0 0.4 0 0 
0.42 0 0 0.44 0 0 0.46 0 0 
0.48 0 0 0.5 0 0 0.52 0 0 
0.54 0 0 0.56 0 0 0.58 0 0 
0.6 0 0 0.62 0 0 0.64 0 0 
0.66 0 0 0.68 0 0 0.7 0 0 
0.72 0 0 0.74 0 0 0.76 0 0 
0.78 0 0 0.8 0 0 0.82 0 0 
0.84 0 0 0.86 0 0 0.88 0 0 
0.9 0 0 0.92 0 0 0.94 0 0 
0.96 0 0 0.98 0 0 1 0 0 
1.02 0 0 1.04 0 0 1.06 0 0 
1.08 0 0 1.1 0 0 1.12 0 0 
1.14 0 0 1.16 0 0 1.18 0 0 
1.2 0 0 1.22 0 0 1.24 0 0 
1.26 0 0 1.28 0 0 1.3 0 0 
1.32 0 0 1.34 0 0 1.36 0 0 
1.38 0 0 1.4 0 0 1.42 0 0 
1.44 0 0 1.46 0 0 1.48 0 0 
1.5 0 0 1.52 0 0 1.54 0 0 
1.56 0 0 1.58 0 0 1.6 0 0 
1.62 0 0 1.64 0 0 1.66 0 0 
1.68 0 0 1.7 0 0 1.72 0 0 
1.74 0 0 1.76 0 0 1.78 0 0 
1.8 0 0 1.82 0 0 1.84 0 0 
1.86 0 0 1.88 0 0 1.9 0 0 
1.92 0 0 1.94 0 0 1.96 0 0 
1.98 0 0 2 0 0 0 0.02 0 
0.02 0.02 0 0.04 0.02 0 0.06 0.02 0 
0.08 0.02 0 0.1 0.02 0 0.12 0.02 0 
0.14 0.02 0 0.16 0.02 0 0.18 0.02 0 
0.2 0.02 0 0.22 0.02 0 0.24 0.02 0 
0.26 0.02 0 0.28 0.02 0 0.3 0.02 0 
0.32 0.02 0 0.34 0.02 0 0.36 0.02 0 
0.38 0.02 0 0.4 0.02 0 0.42 0.02 0 
0.44 0.02 0 0.46 0.02 0 0.48 0.02 0 
0.5 0.02 0 0.52 0.02 0 0.54 0.02 0 
0.56 0.02 0 0.58 0.02 0 0.6 0.02 0 
0.62 0.02 0 0.64 0.02 0 0.66 0.02 0 
0.68 0.02 0 0.7 0.02 0 0.72 0.02 0 
0.74 0.02 0 0.76 0.02 0 0.78 0.02 0 
0.8 0.02 0 0.82 0.02 0 0.84 0.02 0 
0.86 0.02 0 0.88 0.02 0 0.9 0.02 0 
0.92 0.02 0 0.94 0.02 0 0.96 0.02 0 
0.98 0.02 0 1 0.02 0 1.02 0.02 0 
1.04 0.02 0 1.06 0.02 0 1.08 0.02 0 
1.1 0.02 0 1.12 0.02 0 1.14 0.02 0 
1.16 0.02 0 1.18 0.02 0 1.2 0.02 0 
1.22 0.02 0 1.24 0.02 0 1.26 0.02 0 
1.28 0.02 0 1.3 0.02 0 1.32 0.02 0 
1.34 0.02 0 1.36 0.02 0 1.38 0.02 0 
1.4 0.02 0 1.42 0.02 0 1.44 0.02 0 
1.46 0.02 0 1.48 0.02 0 1.5 0.02 0 
1.52 0.02 0 1.54 0.02 0 1.56 0.02 0 
1.58 0.02 0 1.6 0.02 0 1.62 0.02 0 
1.64 0.02 0 1.66 0.02 0 1.68 0.02 0 
1.7 0.02 0 1.72 0.02 0 1.74 0.02 0 
1.76 0.02 0 1.78 0.02 0 1.8 0.02 0 
1.82 0.02 0 1.84 0.02 0 1.86 0.02 0 
1.88 0.02 0 1.9 0.02 0 1.92 0.02 0 
1.94 0.02 0 1.96 0.02 0 1.98 0.02 0 
2 0.02 0 0 0.04 0 0.02 0.04 0 
0.04 0.04 0 0.06 0.04 0 0.08 0.04 0 
0.1 0.04 0 0.12 0.04 0 0.14 0.04 0 
0.16 0.04 0 0.18 0.04 0 0.2 0.04 0 
0.22 0.04 0 0.24 0.04 0 0.26 0.04 0 
0.28 0.04 0 0.3 0.04 0 0.32 0.04 0 
0.34 0.04 0 0.36 0.04 0 0.38 0.04 0 
0.4 0.04 0 0.42 0.04 0 0.44 0.04 0 
0.46 0.04 0 0.48 0.04 0 0.5 0.04 0 
0.52 0.04 0 0.54 0.04 0 0.56 0.04 0 
0.58 0.04 0 0.6 0.04 0 0.62 0.04 0 
0.64 0.04 0 0.66 0.04 0 0.68 0.04 0 
0.7 0.04 0 0.72 0.04 0 0.74 0.04 0 
0.76 0.04 0 0.78 0.04 0 0.8 0.04 0 
0.82 0.04 0 0.84 0.04 0 0.86 0.04 0 
0.88 0.04 0 0.9 0.04 0 0.92 0.04 0 
0.94 0.04 0 0.96 0.04 0 0.98 0.04 0 
1 0.04 0 1.02 0.04 0 1.04 0.04 0 
1.06 0.04 0 1.08 0.04 0 1.1 0.04 0 
1.12 0.04 0 1.14 0.04 0 1.16 0.04 0 
1.18 0.04 0 1.2 0.04 0 1.22 0.04 0 
1.24 0.04 0 1.26 0.04 0 1.28 0.04 0 
1.3 0.04 0 1.32 0.04 0 1.34 0.04 0 
1.36 0.04 0 1.38 0.04 0 1.4 0.04 0 
1.42 0.04 0 1.44 0.04 0 1.46 0.04 0 
1.48 0.04 0 1.5 0.04 0 1.52 0.04 0 
1.54 0.04 0 1.56 0.04 0 1.58 0.04 0 
1.6 0.04 0 1.62 0.04 0 1.64 0.04 0 
1.66 0.04 0 1.68 0.04 0 1.7 0.04 0 
1.72 0.04 0 1.74 0.04 0 1.76 0.04 0 
1.78 0.04 0 1.8 0.04 0 1.82 0.04 0 
1.84 0.04 0 1.86 0.04 0 1.88 0.04 0 
1.9 0.04 0 1.92 0.04 0 1.94 0.04 0 
1.96 0.04 0 1.98 0.04 0 2 0.04 0 
0 0.06 0 0.02 0.06 0 0.04 0.06 0 
0.06 0.06 0 0.08 0.06 0 0.1 0.06 0 
0.12 0.06 0 0.14 0.06 0 0.16 0.06 0 
0.18 0.06 0 0.2 0.06 0 0.22 0.06 0 
0.24 0.06 0 0.26 0.06 0 0.28 0.06 0 
0.3 0.06 0 0.32 0.06 0 0.34 0.06 0 
0.36 0.06 0 0.38 0.06 0 0.4 0.06 0 
0.42 0.06 0 0.44 0.06 0 0.46 0.06 0 
0.48 0.06 0 0.5 0.06 0 0.52 0.06 0 
0.54 0.06 0 0.56 0.06 0 0.58 0.06 0 
0.6 0.06 0 0.62 0.06 0 0.64 0.06 0 
0.66 0.06 0 0.68 0.06 0 0.7 0.06 0 
0.72 0.06 0 0.74 0.06 0 0.76 0.06 0 
0.78 0.06 0 0.8 0.06 0 0.82 0.06 0 
0.84 0.06 0 0.86 0.06 0 0.88 0.06 0 
0.9 0.06 0 0.92 0.06 0 0.94 0.06 0 
0.96 0.06 0 0.98 0.06 0 1 0.06 0 
1.02 0.06 0 1.04 0.06 0 1.06 0.06 0 
1.08 0.06 0 1.1 0.06 0 1.12 0.06 0 
1.14 0.06 0 1.16 0.06 0 1.18 0.06 0 
1.2 0.06 0 1.22 0.06 0 1.24 0.06 0 
1.26 0.06 0 1.28 0.06 0 1.3 0.06 0 
1.32 0.06 0 1.34 0.06 0 1.36 0.06 0 
1.38 0.06 0 1.4 0.06 0 1.42 0.06 0 
1.44 0.06 0 1.46 0.06 0 1.48 0.06 0 
1.5 0.06 0 1.52 0.06 0 1.54 0.06 0 
1.56 0.06 0 1.58 0.06 0 1.6 0.06 0 
1.62 0.06 0 1.64 0.06 0 1.66 0.06 0 
1.68 0.06 0 1.7 0.06 0 1.72 0.06 0 
1.74 0.06 0 1.76 0.06 0 1.78 0.06 0 
1.8 0.06 0 1.82 0.06 0 1.84 0.06 0 
1.86 0.06 0 1.88 0.06 0 1.9 0.06 0 
1.92 0.06 0 1.94 0.06 0 1.96 0.06 0 
1.98 0.06 0 2 0.06 0 0 0.08 0 
0.02 0.08 0 0.04 0.08 0 0.06 0.08 0 
0.08 0.08 0 0.1 0.08 0 0.12 0.08 0 
0.14 0.08 0 0.16 0.08 0 0.18 0.08 0 
0.2 0.08 0 0.22 0.08 0 0.24 0.08 0 
0.26 0.08 0 0.28 0.08 0 0.3 0.08 0 
0.32 0.08 0 0.34 0.08 0 0.36 0.08 0 
0.38 0.08 0 0.4 0.08 0 0.42 0.08 0 
0.44 0.08 0 0.46 0.08 0 0.48 0.08 0 
0.5 0.08 0 0.52 0.08 0 0.54 0.08 0 
0.56 0.08 0 0.58 0.08 0 0.6 0.08 0 
0.62 0.08 0 0.64 0.08 0 0.66 0.08 0 
0.68 0.08 0 0.7 0.08 0 0.72 0.08 0 
0.74 0.08 0 0.76 0.08 0 0.78 0.08 0 
0.8 0.08 0 0.82 0.08 0 0.84 0.08 0 
0.86 0.08 0 0.88 0.08 0 0.9 0.08 0 
0.92 0.08 0 0.94 0.08 0 0.96 0.08 0 
0.98 0.08 0 1 0.08 0 1.02 0.08 0 
1.04 0.08 0 1.06 0.08 0 1.08 0.08 0 
1.1 0.08 0 1.12 0.08 0 1.14 0.08 0 
1.16 0.08 0 1.18 0.08 0 1.2 0.08 0 
1.22 0.08 0 1.24 0.08 0 1.26 0.08 0 
1.28 0.08 0 1.3 0.08 0 1.32 0.08 0 
1.34 0.08 0 1.36 0.08 0 1.38 0.08 0 
1.4 0.08 0 1.42 0.08 0 1.44 0.08 0 
1.46 0.08 0 1.48 0.08 0 1.5 0.08 0 
1.52 0.08 0 1.54 0.08 0 1.56 0.08 0 
1.58 0.08 0 1.6 0.08 0 1.62 0.08 0 
1.64 0.08 0 1.66 0.08 0 1.68 0.08 0 
1.7 0.08 0 1.72 0.08 0 1.74 0.08 0 
1.76 0.08 0 1.78 0.08 0 1.8 0.08 0 
1.82 0.08 0 1.84 0.08 0 1.86 0.08 0 
1.88 0.08 0 1.9 0.08 0 1.92 0.08 0 
1.94 0.08 0 1.96 0.08 0 1.98 0.08 0 
2 0.08 0 0 0.1 0 0.02 0.1 0 
0.04 0.1 0 0.06 0.1 0 0.08 0.1 0 
0.1 0.1 0 0.12 0.1 0 0.14 0.1 0 
0.16 0.1 0 0.18 0.1 0 0.2 0.1 0 
0.22 0.1 0 0.24 0.1 0 0.26 0.1 0 
0.28 0.1 0 0.3 0.1 0 0.32 0.1 0 
0.34 0.1 0 0.36 0.1 0 0.38 0.1 0 
0.4 0.1 0 0.42 0.1 0 0.44 0.1 0 
0.46 0.1 0 0.48 0.1 0 0.5 0.1 0 
0.52 0.1 0 0.54 0.1 0 0.56 0.1 0 
0.58 0.1 0 0.6 0.1 0 0.62 0.1 0 
0.64 0.1 0 0.66 0.1 0 0.68 0.1 0 
0.7 0.1 0 0.72 0.1 0 0.74 0.1 0 
0.76 0.1 0 0.78 0.1 0 0.8 0.1 0 
0.82 0.1 0 0.84 0.1 0 0.86 0.1 0 
0.88 0.1 0 0.9 0.1 0 0.92 0.1 0 
0.94 0.1 0 0.96 0.1 0 0.98 0.1 0 
1 0.1 0 1.02 0.1 0 1.04 0.1 0 
1.06 0.1 0 1.08 0.1 0 1.1 0.1 0 
1.12 0.1 0 1.14 0.1 0 1.16 0.1 0 
1.18 0.1 0 1.2 0.1 0 1.22 0.1 0 
1.24 0.1 0 1.26 0.1 0 1.28 0.1 0 
1.3 0.1 0 1.32 0.1 0 1.34 0.1 0 
1.36 0.1 0 1.38 0.1 0 1.4 0.1 0 
1.42 0.1 0 1.44 0.1 0 1.46 0.1 0 
1.48 0.1 0 1.5 0.1 0 1.52 0.1 0 
1.54 0.1 0 1.56 0.1 0 1.58 0.1 0 
1.6 0.1 0 1.62 0.1 0 1.64 0.1 0 
1.66 0.1 0 1.68 0.1 0 1.7 0.1 0 
1.72 0.1 0 1.74 0.1 0 1.76 0.1 0 
1.78 0.1 0 1.8 0.1 0 1.82 0.1 0 
1.84 0.1 0 1.86 0.1 0 1.88 0.1 0 
1.9 0.1 0 1.92 0.1 0 1.94 0.1 0 
1.96 0.1 0 1.98 0.1 0 2 0.1 0 
0 0.12 0 0.02 0.12 0 0.04 0.12 0 
0.06 0.12 0 0.08 0.12 0 0.1 0.12 0 
0.12 0.12 0 0.14 0.12 0 0.16 0.12 0 
0.18 0.12 0 0.2 0.12 0 0.22 0.12 0 
0.24 0.12 0 0.26 0.12 0 0.28 0.12 0 
0.3 0.12 0 0.32 0.12 0 0.34 0.12 0 
0.36 0.12 0 0.38 0.12 0 0.4 0.12 0 
0.42 0.12 0 0.44 0.12 0 0.46 0.12 0 
0.48 0.12 0 0.5 0.12 0 0.52 0.12 0 
0.54 0.12 0 0.56 0.12 0 0.58 0.12 0 
0.6 0.12 0 0.62 0.12 0 0.64 0.12 0 
0.66 0.12 0 0.68 0.12 0 0.7 0.12 0 
0.72 0.12 0 0.74 0.12 0 0.76 0.12 0 
0.78 0.12 0 0.8 0.12 0 0.82 0.12 0 
0.84 0.12 0 0.86 0.12 0 0.88 0.12 0 
0.9 0.12 0 0.92 0.12 0 0.94 0.12 0 
0.96 0.12 0 0.98 0.12 0 1 0.12 0 
1.02 0.12 0 1.04 0.12 0 1.06 0.12 0 
1.08 0.12 0 1.1 0.12 0 1.12 0.12 0 
1.14 0.12 0 1.16 0.12 0 1.18 0.12 0 
1.2 0.12 0 1.22 0.12 0 1.24 0.12 0 
1.26 0.12 0 1.28 0.12 0 1.3 0.12 0 
1.32 0.12 0 1.34 0.12 0 1.36 0.12 0 
1.38 0.12 0 1.4 0.12 0 1.42 0.12 0 
1.44 0.12 0 1.46 0.12 0 1.48 0.12 0 
1.5 0.12 0 1.52 0.12 0 1.54 0.12 0 
1.56 0.12 0 1.58 0.12 0 1.6 0.12 0 
1.62 0.12 0 1.64 0.12 0 1.66 0.12 0 
1.68 0.12 0 1.7 0.12 0 1.72 0.12 0 
1.74 0.12 0 1.76 0.12 0 1.78 0.12 0 
1.8 0.12 0 1.82 0.12 0 1.84 0.12 0 
1.86 0.12 0 1.88 0.12 0 1.9 0.12 0 
1.92 0.12 0 1.94 0.12 0 1.96 0.12 0 
1.98 0.12 0 2 0.12 0 0 0.14 0 
0.02 0.14 0 0.04 0.14 0 0.06 0.14 0 
0.08 0.14 0 0.1 0.14 0 0.12 0.14 0 
0.14 0.14 0 0.16 0.14 0 0.18 0.14 0 
0.2 0.14 0 0.22 0.14 0 0.24 0.14 0 
0.26 0.14 0 0.28 0.14 0 0.3 0.14 0 
0.32 0.14 0 0.34 0.14 0 0.36 0.14 0 
0.38 0.14 0 0.4 0.14 0 0.42 0.14 0 
0.44 0.14 0 0.46 0.14 0 0.48 0.14 0 
0.5 0.14 0 0.52 0.14 0 0.54 0.14 0 
0.56 0.14 0 0.58 0.14 0 0.6 0.14 0 
0.62 0.14 0 0.64 0.14 0 0.66 0.14 0 
0.68 0.14 0 0.7 0.14 0 0.72 0.14 0 
0.74 0.14 0 0.76 0.14 0 0.78 0.14 0 
0.8 0.14 0 0.82 0.14 0 0.84 0.14 0 
0.86 0.14 0 0.88 0.14 0 0.9 0.14 0 
0.92 0.14 0 0.94 0.14 0 0.96 0.14 0 
0.98 0.14 0 1 0.14 0 1.02 0.14 0 
1.04 0.14 0 1.06 0.14 0 1.08 0.14 0 
1.1 0.14 0 1.12 0.14 0 1.14 0.14 0 
1.16 0.14 0 1.18 0.14 0 1.2 0.14 0 
1.22 0.14 0 1.24 0.14 0 1.26 0.14 0 
1.28 0.14 0 1.3 0.14 0 1.32 0.14 0 
1.34 0.14 0 1.36 0.14 0 1.38 0.14 0 
1.4 0.14 0 1.42 0.14 0 1.44 0.14 0 
1.46 0.14 0 1.48 0.14 0 1.5 0.14 0 
1.52 0.14 0 1.54 0.14 0 1.56 0.14 0 
1.58 0.14 0 1.6 0.14 0 1.62 0.14 0 
1.64 0.14 0 1.66 0.14 0 1.68 0.14 0 
1.7 0.14 0 1.72 0.14 0 1.74 0.14 0 
1.76 0.14 0 1.78 0.14 0 1.8 0.14 0 
1.82 0.14 0 1.84 0.14 0 1.86 0.14 0 
1.88 0.14 0 1.9 0.14 0 1.92 0.14 0 
1.94 0.14 0 1.96 0.14 0 1.98 0.14 0 
2 0.14 0 0 0.16 0 0.02 0.16 0 
0.04 0.16 0 0.06 0.16 0 0.08 0.16 0 
0.1 0.16 0 0.12 0.16 0 0.14 0.16 0 
0.16 0.16 0 0.18 0.16 0 0.2 0.16 0 
0.22 0.16 0 0.24 0.16 0 0.26 0.16 0 
0.28 0.16 0 0.3 0.16 0 0.32 0.16 0 
0.34 0.16 0 0.36 0.16 0 0.38 0.16 0 
0.4 0.16 0 0.42 0.16 0 0.44 0.16 0 
0.46 0.16 0 0.48 0.16 0 0.5 0.16 0 
0.52 0.16 0 0.54 0.16 0 0.56 0.16 0 
0.58 0.16 0 0.6 0.16 0 0.62 0.16 0 
0.64 0.16 0 0.66 0.16 0 0.68 0.16 0 
0.7 0.16 0 0.72 0.16 0 0.74 0.16 0 
0.76 0.16 0 0.78 0.16 0 0.8 0.16 0 
0.82 0.16 0 0.84 0.16 0 0.86 0.16 0 
[...]
CELL_DATA 5000
FIELD FieldData 2
pressure 1 5000 double
894.66639729 894.6664056 894.66641942 894.66642491 894.66642173 894.66641225 894.66639744 894.66637762 894.66635498 
894.66633369 894.66631892 894.66631623 894.66633141 894.66637003 894.66643656 894.66653285 894.66664983 894.66677462 
894.66688703 894.66696395 894.66698959 894.66696798 894.66692577 894.66689586 894.66689586 894.67151757 894.67151757 
894.67152659 894.67153375 894.67154002 894.67154362 894.67154304 894.67153797 894.67152921 894.67151819 894.67150649 
894.67149537 894.6714857 894.67147788 894.67147198 894.67146783 894.67146517 894.6714637 894.67146306 894.67146286 
894.67146258 894.6714616 894.67145922 894.67145477 894.67144768 894.6714376 894.67142442 894.67140827 894.6713895 
894.67136859 894.67134614 894.6713228 894.6712992 894.67127596 894.67125361 894.67123264 894.67121359 894.67119698 
894.67118299 894.67117162 894.67116279 894.67115619 894.6711515 894.67114837 894.67114651 894.67114593 894.67114819 
894.67115862 894.67118153 894.67121219 894.6712436 894.67126918 894.67128713 894.67129724 894.67130043 894.6712978 
894.67129054 894.67128008 894.67126812 894.67125653 894.67124703 894.67124097 894.67123921 894.67124234 894.67125062 
894.67126404 894.67128215 894.671304 894.67132808 894.67135227 894.67137385 894.67138974 894.67139713 894.67139462 
894.67138407 894.47034279 894.47034642 894.47034548 894.4703394 894.47032777 894.47031048 894.47028734 894.47025956 
894.47022937 894.47020014 894.47017647 894.47016394 894.47016885 894.47019735 894.47025418 894.47033949 894.4704489 
894.47056886 894.47067971 894.47075961 894.470794 894.47078754 894.47076571 894.47075034 894.47075034 894.47532224 
894.47532224 894.47532761 894.47533266 894.47533746 894.47534011 894.47533912 894.47533414 894.47532587 894.47531564 
894.47530488 894.47529475 894.47528596 894.47527883 894.47527334 894.47526931 894.47526649 894.4752646 894.47526336 
894.47526244 894.47526139 894.47525967 894.47525664 894.47525166 894.4752442 894.47523394 894.47522076 894.47520479 
894.47518637 894.47516596 894.47514414 894.4751215 894.47509868 894.47507623 894.47505466 894.47503433 894.47501591 
894.47500006 894.47498685 894.47497623 894.47496797 894.47496182 894.47495749 894.47495461 894.47495273 894.47495109 
894.47494829 894.47494252 894.47493519 894.47493245 894.4749361 894.47494253 894.47495032 894.47495653 894.47496042 
894.47496139 894.47495951 894.47495548 894.47495031 894.47494518 894.47494112 894.47493913 894.47494005 894.47494457 
894.47495312 894.47496581 894.47498249 894.47500254 894.47502487 894.47504776 894.4750688 894.47508511 894.47509427 
894.47509617 894.47509404 894.27424301 894.27424136 894.27423354 894.27422119 894.27420371 894.27418067 894.27415145 
894.27411607 894.27407588 894.27403408 894.27399579 894.27396776 894.27395755 894.27397226 894.27401662 894.27409284 
894.27419729 894.27431722 894.27443425 894.27452742 894.27458088 894.27459444 894.2745864 894.2745746 894.2745746 
894.27912001 894.27912001 894.27912483 894.27912902 894.27913289 894.27913456 894.27913268 894.27912703 894.27911846 
894.2791084 894.27909825 894.27908909 894.27908149 894.27907558 894.27907117 894.27906795 894.27906557 894.27906376 
894.27906226 894.27906079 894.279059 894.27905637 894.27905234 894.27904634 894.27903792 894.27902681 894.27901296 
894.27899652 894.27897783 894.27895735 894.27893561 894.27891319 894.27889068 894.27886863 894.27884756 894.27882791 
894.2788102 894.278795 894.27878244 894.27877247 894.27876489 894.27875939 894.27875559 894.27875295 894.27875075 
894.27874779 894.27874225 894.27873205 894.27871737 894.27870187 894.2786888 894.27868042 894.27867657 894.27867416 
894.27867384 894.27867367 894.27867297 894.27867113 894.27866827 894.27866509 894.27866256 894.27866161 894.27866309 
894.27866771 894.278676 894.27868838 894.27870475 894.27872463 894.2787471 894.27877064 894.27879298 894.27881112 
894.27882215 894.2788251 894.27882193 894.07812312 894.07811815 894.0781075 894.07809192 894.07807024 894.07804113 
894.07800334 894.07795647 894.07790197 894.07784367 894.07778783 894.07774246 894.07771618 894.07771663 894.07774838 
894.0778162 894.07791556 894.07803588 894.07816129 894.07827231 894.078351 894.07838942 894.07839533 894.07838435 
894.07838435 894.08291532 894.08291532 894.08292061 894.08292441 894.0829273 894.08292754 894.08292411 894.08291716 
894.08290785 894.08289775 894.08288827 894.08288039 894.08287448 894.08287041 894.08286776 894.08286599 894.08286458 
894.08286318 894.08286152 894.08285937 894.08285643 894.08285231 894.08284654 894.08283869 894.08282845 894.08281569 
894.08280044 894.08278291 894.08276342 894.0827424 894.08272034 894.08269775 894.08267518 894.08265317 894.08263228 
894.08261305 894.08259562 894.08258074 894.08256857 894.0825591 894.08255212 894.08254727 894.08254403 894.0825417 
894.08253931 894.08253557 894.08252886 894.08251778 894.08250227 894.08248421 894.08246622 894.08245035 894.0824368 
894.08242537 894.08241679 894.08240906 894.08240428 894.08240072 894.08239777 894.08239514 894.08239308 894.0823923 
894.08239369 894.08239806 894.08240596 894.08241805 894.08243428 894.08245415 894.0824769 894.08250131 894.08252539 
894.08254612 894.08255983 894.08256409 894.08255988 893.88199138 893.88198479 893.88197291 893.88195501 893.88192885 
893.88189248 893.88184441 893.88178452 893.88171496 893.88164054 893.88156851 893.8815077 893.88146723 893.8814549 
893.88147544 893.88153431 893.88162696 893.88174537 893.88187686 893.88200422 893.88210789 893.8821719 893.88219234 
893.88218136 893.88218136 893.88670936 893.88670936 893.88671537 893.88671883 893.88672039 893.88671862 893.88671306 
893.88670441 893.88669419 893.88668412 893.8866756 893.88666939 893.88666562 893.88666386 893.88666339 893.88666337 
893.88666308 893.88666205 893.88665996 893.88665664 893.88665189 893.88664544 893.88663703 893.88662645 893.88661361 
893.88659852 893.88658133 893.88656227 893.88654164 893.8865198 893.88649713 893.88647408 893.88645114 893.88642881 
893.88640766 893.88638825 893.88637086 893.88635583 893.88634363 893.88633427 893.88632757 893.88632314 893.88632038 
893.88631845 893.88631628 893.88631259 893.88630606 893.8862957 893.88628145 893.88626433 893.88624593 893.88622762 
893.88620987 893.88619285 893.88617667 893.88616181 893.88615037 893.88614068 893.88613445 893.88613026 893.88612758 
893.88612665 893.88612806 893.88613247 893.88614021 893.88615212 893.88616811 893.88618767 893.8862102 893.88623485 
893.88626019 893.88628354 893.88630067 893.88630752 893.88630374 893.68585027 893.6858431 893.68583031 893.68581013 
893.68577956 893.68573624 893.68567884 893.68560785 893.68552625 893.68543965 893.68535584 893.68528386 893.68523279 
893.68521037 893.68522226 893.68527183 893.68535582 893.68546839 893.68560032 893.68573755 893.68586053 893.68594738 
893.68598353 893.68597591 893.68597591 893.69050282 893.69050282 893.69050944 893.69051231 893.69051207 893.69050779 
893.69049972 893.6904892 893.69047815 893.69046839 893.6904612 893.69045705 893.69045573 893.69045645 893.69045816 
893.69045973 893.69046023 893.69045904 893.69045586 893.69045056 893.69044307 893.69043336 893.69042147 893.69040746 
893.69039149 893.69037374 893.69035441 893.69033371 893.69031185 893.69028907 893.69026565 893.69024192 893.6902183 
893.69019526 893.69017336 893.69015318 893.69013533 893.6901197 893.69010699 893.69009728 893.69009046 893.69008615 
893.69008371 893.69008228 893.69008075 893.69007791 893.6900726 893.69006402 893.69005203 893.69003715 893.69002032 
893.6900024 893.68998386 893.68996495 893.68994585 893.68992722 893.68991016 893.68989532 893.68988428 893.68987617 
893.68987105 893.68986898 893.68986991 893.6898743 893.68988254 893.68989453 893.68991024 893.68992898 893.68995028 
893.68997382 893.68999897 893.69002388 893.69004434 893.69005481 893.69005298 893.48970151 893.48969453 893.48968102 
893.48965894 893.48962499 893.48957675 893.48951321 893.48943549 893.48934722 893.48925445 893.48916499 893.48908753 
893.48903069 893.48900199 893.48900745 893.48904833 893.48912219 893.48922489 893.48935049 893.48948875 893.48962217 
893.48972624 893.4897782 893.48977765 893.48977765 893.49429632 893.49429632 893.49430323 893.49430508 893.49430255 
893.49429534 893.49428454 893.49427217 893.49426052 893.49425144 893.49424594 893.4942441 893.49424527 893.4942483 
893.49425178 893.49425433 893.49425482 893.49425257 893.49424727 893.4942389 893.49422764 893.49421383 893.49419785 
893.49418013 893.494161 893.49414074 893.49411952 893.49409743 893.49407453 893.49405089 893.49402664 893.494002 
893.49397733 893.49395309 893.49392985 893.49390828 893.49388908 893.4938724 893.49385867 893.49384814 893.49384078 
893.49383628 893.49383405 893.49383322 893.49383269 893.49383131 893.493828 893.49382197 893.49381295 893.49380113 
893.49378702 893.49377118 893.49375403 893.49373588 893.49371702 893.49369799 893.49367957 893.49366273 893.49364863 
893.49363765 893.49363015 893.49362656 893.49362664 893.49363094 893.49363988 893.4936523 893.49366787 893.49368542 
893.4937044 893.49372502 893.4937477 893.49377188 893.49379415 893.49380806 893.49380911 893.29354764 893.29354153 
893.29352782 893.29350484 893.29346943 893.29341936 893.293354 893.29327494 893.29318618 893.2930938 893.29300521 
893.29292835 893.29287091 893.29283986 893.29284102 893.29287419 893.29293725 893.29302725 893.29314096 893.29327204 
893.29340649 893.29352032 893.29358566 893.29359353 893.29359353 893.29809061 893.29809061 893.29809739 893.29809766 
893.29809231 893.29808181 893.29806814 893.298054 893.29804199 893.29803389 893.29803029 893.29803076 893.29803418 
893.29803901 893.29804353 893.2980461 893.29804548 893.2980409 893.29803214 893.2980195 893.29800358 893.2979852 
893.29796513 893.29794403 893.29792236 893.29790031 893.29787791 893.29785501 893.29783143 893.29780704 893.29778184 
893.29775597 893.29772976 893.2977037 893.29767842 893.29765465 893.29763316 893.29761467 893.29759936 893.29758749 
893.29757919 893.29757423 893.29757208 893.29757191 893.29757266 893.29757319 893.29757242 893.29756954 893.29756409 
893.29755601 893.29754551 893.29753296 893.29751874 893.29750319 893.2974867 893.29746974 893.29745295 893.29743715 
893.29742327 893.29741204 893.29740417 893.29740023 893.2974006 893.29740571 893.2974156 893.2974292 893.2974454 
893.29746226 893.29747865 893.29749509 893.29751299 893.29753347 893.29755475 893.29757037 893.2975742 893.09739189 
893.09738718 893.0973741 893.09735165 893.0973171 893.09726856 893.09720574 893.09713048 893.09704682 893.09696057 
893.09687847 893.09680748 893.09675414 893.09672423 893.0967229 893.09674913 893.09680148 893.09687779 893.09697693 
893.09709556 893.09722362 893.09733981 893.09741417 893.09742991 893.09742991 893.10188671 893.10188671 893.1018929 
893.10189093 893.10188216 893.10186795 893.1018512 893.10183525 893.10182298 893.10181596 893.10181423 893.10181675 
893.10182192 893.10182784 893.10183245 893.10183385 893.10183064 893.10182215 893.10180854 893.10179064 893.10176969 
893.10174695 893.10172352 893.10170015 893.10167717 893.10165453 893.10163193 893.10160888 893.10158494 893.10155981 
893.10153337 893.10150578 893.10147742 893.10144884 893.10142077 893.10139401 893.10136945 893.10134798 893.1013304 
893.10131668 893.10130703 893.10130133 893.10129913 893.10129963 893.10130181 893.10130451 893.10130665 893.10130732 
893.10130589 893.1013021 893.10129596 893.10128766 893.10127752 893.10126592 893.10125328 893.10124009 893.10122689 
893.10121433 893.10120313 893.10119401 893.10118771 893.10118497 893.10118656 893.10119317 893.10120499 893.10122075 
893.10123842 893.10125563 893.10127074 893.10128391 893.10129694 893.10131182 893.10132873 893.10134355 893.1013493 
892.90123732 892.90123437 892.90122282 892.9012024 892.90117094 892.90112693 892.90107027 892.90100278 892.90092829 
892.9008521 892.90078007 892.9007183 892.90067219 892.90064605 892.90064344 892.90066354 892.9007062 892.90076986 
892.90085523 892.90096021 892.90107817 892.90119143 892.90127036 892.90129254 892.90129254 892.90568602 892.90568602 
892.90569097 892.90568603 892.90567314 892.90565466 892.90563437 892.90561628 892.90560355 892.90559744 892.90559729 
892.90560139 892.90560773 892.90561393 892.90561745 892.90561609 892.90560851 892.90559447 892.9055749 892.9055514 
892.90552583 892.90549983 892.90547458 892.90545065 892.90542801 892.90540615 892.90538427 892.90536154 892.90533728 
892.90531111 892.90528297 892.90525309 892.90522197 892.90519026 892.90515878 892.90512841 892.90510011 892.90507481 
892.90505376 892.90503775 892.90502636 892.90501965 892.90501723 892.90501833 892.90502195 892.90502691 892.90503207 
892.90503645 892.90503929 892.90504014 892.90503885 892.90503549 892.90503029 892.90502362 892.9050159 892.90500761 
892.90499925 892.90499134 892.9049844 892.90497899 892.90497571 892.90497534 892.90497879 892.90498706 892.90500054 
892.90501826 892.90503729 892.9050552 892.90507014 892.90508195 892.90509209 892.90510269 892.90511476 892.90512649 
892.90513333 892.70508621 892.70508515 892.70507589 892.7050588 892.70503221 892.70499498 892.70494702 892.70488987 
892.70482646 892.70476133 892.70470009 892.70464804 892.70460965 892.70458834 892.70458624 892.70460302 892.70463935 
892.70469462 892.70476821 892.70486109 892.7049694 892.70507808 892.70515878 892.70518601 892.70518601 892.70949014 
892.70949014 892.70949312 892.70948435 892.70946649 892.7094429 892.70941823 892.70939724 892.70938342 892.70937769 
892.7093786 892.7093838 892.70939071 892.70939617 892.70939703 892.70939098 892.70937715 892.70935629 892.70933036 
892.70930182 892.70927301 892.70924567 892.70922075 892.70919832 892.70917769 892.7091577 892.70913706 892.70911464 
892.70908974 892.7090621 892.70903183 892.70899934 892.70896523 892.70893023 892.70889517 892.70886097 892.70882862 
892.70879911 892.70877344 892.70875403 892.70874037 892.70873223 892.70872929 892.70873077 892.70873563 892.70874267 
892.70875069 892.70875864 892.70876567 892.7087712 892.70877495 892.70877686 892.70877711 892.70877598 892.70877388 
892.70877125 892.7087685 892.70876606 892.70876426 892.70876345 892.70876405 892.70876666 892.70877221 892.70878186 
892.70879627 892.70881468 892.70883422 892.70885232 892.70886726 892.70887885 892.70888826 892.70889706 892.70890618 
892.70891505 892.70892192 892.50893977 892.50894051 892.50893401 892.50892119 892.50890074 892.50887163 892.50883353 
892.50878735 892.50873542 892.50868149 892.5086303 892.50858658 892.50855434 892.50853671 892.50853568 892.50855142 
892.50858506 892.50863682 892.50870665 892.508794 892.50889473 892.50899941 892.50908174 892.50911338 892.50911338 
892.51330089 892.51330089 892.513301 892.51328741 892.51326347 892.51323353 892.51320317 892.51317796 892.51316189 
892.51315564 892.51315696 892.51316279 892.51316957 892.51317286 892.51316906 892.51315626 892.51313471 892.51310654 
892.51307488 892.51304289 892.51301309 892.51298694 892.51296474 892.51294571 892.51292829 892.51291065 892.51289112 
892.51286863 892.51284273 892.51281348 892.51278126 892.51274658 892.51271002 892.51267227 892.5126341 892.5125964 
892.51256016 892.51252639 892.51249624 892.5124711 892.5124541 892.51244373 892.51243958 892.51244083 892.51244635 
892.51245489 892.51246519 892.51247616 892.51248688 892.5124967 892.51250524 892.51251237 892.51251815 892.5125228 
892.51252665 892.51253005 892.51253332 892.51253675 892.51254052 892.51254472 892.51254953 892.5125553 892.51256285 
892.51257337 892.51258775 892.5126056 892.51262463 892.51264234 892.51265723 892.51266913 892.51267901 892.51268795 
892.51269625 892.51270364 892.51271032 892.31279831 892.31280057 892.31279712 892.31278905 892.31277529 892.31275478 
892.31272687 892.31269169 892.31265067 892.31260666 892.31256365 892.31252605 892.31249791 892.31248266 892.31248279 
892.31249926 892.31253359 892.31258656 892.31265835 892.31274777 892.31285006 892.31295431 892.31303971 892.31307607 
892.31307607 892.31711999 892.31711999 892.31711611 892.31709651 892.31706502 892.31702707 892.31698924 892.31695789 
892.31693779 892.31692961 892.31693055 892.31693658 892.31694212 892.31694136 892.31693076 892.31690954 892.31687967 
892.31684486 892.31680925 892.31677635 892.31674841 892.31672614 892.31670878 892.31669441 892.31668056 892.31666493 
892.31664599 892.31662314 892.31659646 892.31656635 892.31653326 892.31649758 892.31645976 892.31642036 892.31638009 
892.31633976 892.31630032 892.31626274 892.31622813 892.31619783 892.31617449 892.31616061 892.31615403 892.31615383 
892.31615881 892.31616763 892.31617904 892.3161919 892.31620526 892.31621846 892.31623105 892.31624283 892.31625377 
892.316264 892.31627373 892.3162832 892.31629258 892.316302 892.31631144 892.31632075 892.31632982 892.31633874 
892.31634813 892.31635914 892.31637289 892.31638948 892.31640741 892.31642452 892.31643947 892.31645198 892.31646282 
892.31647274 892.31648152 892.31648863 892.31649516 892.11666138 892.1166648 892.11666421 892.116661 892.11665412 
892.11664231 892.11662434 892.11659945 892.11656802 892.11653198 892.11649482 892.11646091 892.11643482 892.11642073 
892.11642215 892.11644098 892.11647928 892.11653827 892.11661805 892.11671659 892.11682772 892.11693904 892.11703007 
892.11707397 892.11707397 892.1209482 892.1209482 892.12093927 892.12091225 892.12087156 892.12082331 892.12077542 
892.12073575 892.12070905 892.1206968 892.12069635 892.12070198 892.12070472 892.12069789 892.12067879 892.12064855 
892.12061113 892.12057168 892.12053496 892.12050434 892.12048125 892.12046519 892.12045397 892.12044447 892.12043359 
892.12041923 892.12040059 892.12037786 892.12035153 892.12032198 892.12028939 892.12025395 892.12021601 892.12017613 
892.12013501 892.12009343 892.12005218 892.12001212 892.11997424 892.11993984 892.1199107 892.11989016 892.11987946 
892.11987602 892.11987857 892.11988577 892.11989639 892.11990931 892.11992364 892.11993869 892.11995402 892.11996935 
892.11998459 892.11999976 892.12001492 892.12003014 892.12004543 892.12006071 892.12007573 892.1200901 892.12010341 
892.12011548 892.12012671 892.12013823 892.12015139 892.12016678 892.12018371 892.12020051 892.12021584 892.12022923 
892.12024111 892.12025208 892.12026168 892.12026905 892.12027538 891.920528 891.92053207 891.92053403 891.92053552 
891.92053538 891.92053203 891.92052343 891.92050772 891.92048416 891.92045382 891.92042001 891.92038731 891.92036138 
891.92034766 891.92035067 891.92037353 891.920419 891.9204886 891.92058215 891.9206964 891.92082322 891.92094804 
891.9210492 891.92110246 891.92110246 891.92478424 891.92478424 891.92476911 891.92473365 891.92468201 891.92462103 
891.92455974 891.92450762 891.92447156 891.92445216 891.92444903 891.92445335 891.9244517 891.92443748 891.92440967 
891.9243716 891.92432909 891.92428827 891.92425404 891.92422904 891.92421338 891.92420491 891.92419991 891.92419437 
891.92418539 891.92417186 891.92415408 891.92413269 891.92410798 891.92407988 891.92404835 891.92401363 891.92397627 
891.92393699 891.92389653 891.92385558 891.92381472 891.92377453 891.92373568 891.92369921 891.92366663 891.92363985 
891.92362207 891.92361334 891.92361115 891.92361427 891.92362157 891.92363211 891.92364508 891.92365987 891.92367605 
891.92369333 891.92371154 891.92373056 891.92375031 891.92377066 891.92379141 891.92381221 891.9238326 891.92385191 
891.92386947 891.92388482 891.92389819 891.92391069 891.9239239 891.92393885 891.9239553 891.92397236 891.92398849 
891.92400304 891.92401604 891.92402786 891.92403807 891.92404571 891.92405171 891.7243969 891.72440109 891.72440528 
891.72441103 891.72441728 891.72442196 891.72442199 891.72441414 891.72439659 891.72436949 891.7243366 891.7243023 
891.72427447 891.7242602 891.72426493 891.72429337 891.72434896 891.72443343 891.72454599 891.72468179 891.72483032 
891.72497439 891.72509037 891.72515413 891.72515413 891.72862374 891.72862374 891.72860094 891.72855564 891.72849117 