# vtk DataFile Version 4.1
vtk output
ASCII
DATASET STRUCTURED_GRID
DIMENSIONS 101 21 1
POINTS 2121 float
0 0 0 0.1 0 0 0.2 0 0 
0.3 0 0 0.4 0 0 0.5 0 0 
0.6 0 0 0.7 0 0 0.8 0 0 
0.9 0 0 1 0 0 1.1 0 0 
1.2 0 0 1.3 0 0 1.4 0 0 
1.5 0 0 1.6 0 0 1.7 0 0 
1.8 0 0 1.9 0 0 2 0 0 
2.1 0 0 2.2 0 0 2.3 0 0 
2.4 0 0 2.5 0 0 2.6 0 0 
2.7 0 0 2.8 0 0 2.9 0 0 
3 0 0 3.1 0 0 3.2 0 0 
3.3 0 0 3.4 0 0 3.5 0 0 
3.6 0 0 3.7 0 0 3.8 0 0 
3.9 0 0 4 0 0 4.1 0 0 
4.2 0 0 4.3 0 0 4.4 0 0 
4.5 0 0 4.6 0 0 4.7 0 0 
4.8 0 0 4.9 0 0 5 0 0 
5.1 0 0 5.2 0 0 5.3 0 0 
5.4 0 0 5.5 0 0 5.6 0 0 
5.7 0 0 5.8 0 0 5.9 0 0 
6 0 0 6.1 0 0 6.2 0 0 
6.3 0 0 6.4 0 0 6.5 0 0 
6.6 0 0 6.7 0 0 6.8 0 0 
6.9 0 0 7 0 0 7.1 0 0 
7.2 0 0 7.3 0 0 7.4 0 0 
7.5 0 0 7.6 0 0 7.7 0 0 
7.8 0 0 7.9 0 0 8 0 0 
8.1 0 0 8.2 0 0 8.3 0 0 
8.4 0 0 8.5 0 0 8.6 0 0 
8.7 0 0 8.8 0 0 8.9 0 0 
9 0 0 9.1 0 0 9.2 0 0 
9.3 0 0 9.4 0 0 9.5 0 0 
9.6 0 0 9.7 0 0 9.8 0 0 
9.9 0 0 10 0 0 0 0.1 0 
0.1 0.1 0 0.2 0.1 0 0.3 0.1 0 
0.4 0.1 0 0.5 0.1 0 0.6 0.1 0 
0.7 0.1 0 0.8 0.1 0 0.9 0.1 0 
1 0.1 0 1.1 0.1 0 1.2 0.1 0 
1.3 0.1 0 1.4 0.1 0 1.5 0.1 0 
1.6 0.1 0 1.7 0.1 0 1.8 0.1 0 
1.9 0.1 0 2 0.1 0 2.1 0.1 0 
2.2 0.1 0 2.3 0.1 0 2.4 0.1 0 
2.5 0.1 0 2.6 0.1 0 2.7 0.1 0 
2.8 0.1 0 2.9 0.1 0 3 0.1 0 
3.1 0.1 0 3.2 0.1 0 3.3 0.1 0 
3.4 0.1 0 3.5 0.1 0 3.6 0.1 0 
3.7 0.1 0 3.8 0.1 0 3.9 0.1 0 
4 0.1 0 4.1 0.1 0 4.2 0.1 0 
4.3 0.1 0 4.4 0.1 0 4.5 0.1 0 
4.6 0.1 0 4.7 0.1 0 4.8 0.1 0 
4.9 0.1 0 5 0.1 0 5.1 0.1 0 
5.2 0.1 0 5.3 0.1 0 5.4 0.1 0 
5.5 0.1 0 5.6 0.1 0 5.7 0.1 0 
5.8 0.1 0 5.9 0.1 0 6 0.1 0 
6.1 0.1 0 6.2 0.1 0 6.3 0.1 0 
6.4 0.1 0 6.5 0.1 0 6.6 0.1 0 
6.7 0.1 0 6.8 0.1 0 6.9 0.1 0 
7 0.1 0 7.1 0.1 0 7.2 0.1 0 
7.3 0.1 0 7.4 0.1 0 7.5 0.1 0 
7.6 0.1 0 7.7 0.1 0 7.8 0.1 0 
7.9 0.1 0 8 0.1 0 8.1 0.1 0 
8.2 0.1 0 8.3 0.1 0 8.4 0.1 0 
8.5 0.1 0 8.6 0.1 0 8.7 0.1 0 
8.8 0.1 0 8.9 0.1 0 9 0.1 0 
9.1 0.1 0 9.2 0.1 0 9.3 0.1 0 
9.4 0.1 0 9.5 0.1 0 9.6 0.1 0 
9.7 0.1 0 9.8 0.1 0 9.9 0.1 0 
10 0.1 0 0 0.2 0 0.1 0.2 0 
0.2 0.2 0 0.3 0.2 0 0.4 0.2 0 
0.5 0.2 0 0.6 0.2 0 0.7 0.2 0 
0.8 0.2 0 0.9 0.2 0 1 0.2 0 
1.1 0.2 0 1.2 0.2 0 1.3 0.2 0 
1.4 0.2 0 1.5 0.2 0 1.6 0.2 0 
1.7 0.2 0 1.8 0.2 0 1.9 0.2 0 
2 0.2 0 2.1 0.2 0 2.2 0.2 0 
2.3 0.2 0 2.4 0.2 0 2.5 0.2 0 
2.6 0.2 0 2.7 0.2 0 2.8 0.2 0 
2.9 0.2 0 3 0.2 0 3.1 0.2 0 
3.2 0.2 0 3.3 0.2 0 3.4 0.2 0 
3.5 0.2 0 3.6 0.2 0 3.7 0.2 0 
3.8 0.2 0 3.9 0.2 0 4 0.2 0 
4.1 0.2 0 4.2 0.2 0 4.3 0.2 0 
4.4 0.2 0 4.5 0.2 0 4.6 0.2 0 
4.7 0.2 0 4.8 0.2 0 4.9 0.2 0 
5 0.2 0 5.1 0.2 0 5.2 0.2 0 
5.3 0.2 0 5.4 0.2 0 5.5 0.2 0 
5.6 0.2 0 5.7 0.2 0 5.8 0.2 0 
5.9 0.2 0 6 0.2 0 6.1 0.2 0 
6.2 0.2 0 6.3 0.2 0 6.4 0.2 0 
6.5 0.2 0 6.6 0.2 0 6.7 0.2 0 
6.8 0.2 0 6.9 0.2 0 7 0.2 0 
7.1 0.2 0 7.2 0.2 0 7.3 0.2 0 
7.4 0.2 0 7.5 0.2 0 7.6 0.2 0 
7.7 0.2 0 7.8 0.2 0 7.9 0.2 0 
8 0.2 0 8.1 0.2 0 8.2 0.2 0 
8.3 0.2 0 8.4 0.2 0 8.5 0.2 0 
8.6 0.2 0 8.7 0.2 0 8.8 0.2 0 
8.9 0.2 0 9 0.2 0 9.1 0.2 0 
9.2 0.2 0 9.3 0.2 0 9.4 0.2 0 
9.5 0.2 0 9.6 0.2 0 9.7 0.2 0 
9.8 0.2 0 9.9 0.2 0 10 0.2 0 
0 0.3 0 0.1 0.3 0 0.2 0.3 0 
0.3 0.3 0 0.4 0.3 0 0.5 0.3 0 
0.6 0.3 0 0.7 0.3 0 0.8 0.3 0 
0.9 0.3 0 1 0.3 0 1.1 0.3 0 
1.2 0.3 0 1.3 0.3 0 1.4 0.3 0 
1.5 0.3 0 1.6 0.3 0 1.7 0.3 0 
1.8 0.3 0 1.9 0.3 0 2 0.3 0 
2.1 0.3 0 2.2 0.3 0 2.3 0.3 0 
2.4 0.3 0 2.5 0.3 0 2.6 0.3 0 
2.7 0.3 0 2.8 0.3 0 2.9 0.3 0 
3 0.3 0 3.1 0.3 0 3.2 0.3 0 
3.3 0.3 0 3.4 0.3 0 3.5 0.3 0 
3.6 0.3 0 3.7 0.3 0 3.8 0.3 0 
3.9 0.3 0 4 0.3 0 4.1 0.3 0 
4.2 0.3 0 4.3 0.3 0 4.4 0.3 0 
4.5 0.3 0 4.6 0.3 0 4.7 0.3 0 
4.8 0.3 0 4.9 0.3 0 5 0.3 0 
5.1 0.3 0 5.2 0.3 0 5.3 0.3 0 
5.4 0.3 0 5.5 0.3 0 5.6 0.3 0 
5.7 0.3 0 5.8 0.3 0 5.9 0.3 0 
6 0.3 0 6.1 0.3 0 6.2 0.3 0 
6.3 0.3 0 6.4 0.3 0 6.5 0.3 0 
6.6 0.3 0 6.7 0.3 0 6.8 0.3 0 
6.9 0.3 0 7 0.3 0 7.1 0.3 0 
7.2 0.3 0 7.3 0.3 0 7.4 0.3 0 
7.5 0.3 0 7.6 0.3 0 7.7 0.3 0 
7.8 0.3 0 7.9 0.3 0 8 0.3 0 
8.1 0.3 0 8.2 0.3 0 8.3 0.3 0 
8.4 0.3 0 8.5 0.3 0 8.6 0.3 0 
8.7 0.3 0 8.8 0.3 0 8.9 0.3 0 
9 0.3 0 9.1 0.3 0 9.2 0.3 0 
9.3 0.3 0 9.4 0.3 0 9.5 0.3 0 
9.6 0.3 0 9.7 0.3 0 9.8 0.3 0 
9.9 0.3 0 10 0.3 0 0 0.4 0 
0.1 0.4 0 0.2 0.4 0 0.3 0.4 0 
0.4 0.4 0 0.5 0.4 0 0.6 0.4 0 
0.7 0.4 0 0.8 0.4 0 0.9 0.4 0 
1 0.4 0 1.1 0.4 0 1.2 0.4 0 
1.3 0.4 0 1.4 0.4 0 1.5 0.4 0 
1.6 0.4 0 1.7 0.4 0 1.8 0.4 0 
1.9 0.4 0 2 0.4 0 2.1 0.4 0 
2.2 0.4 0 2.3 0.4 0 2.4 0.4 0 
2.5 0.4 0 2.6 0.4 0 2.7 0.4 0 
2.8 0.4 0 2.9 0.4 0 3 0.4 0 
3.1 0.4 0 3.2 0.4 0 3.3 0.4 0 
3.4 0.4 0 3.5 0.4 0 3.6 0.4 0 
3.7 0.4 0 3.8 0.4 0 3.9 0.4 0 
4 0.4 0 4.1 0.4 0 4.2 0.4 0 
4.3 0.4 0 4.4 0.4 0 4.5 0.4 0 
4.6 0.4 0 4.7 0.4 0 4.8 0.4 0 
4.9 0.4 0 5 0.4 0 5.1 0.4 0 
5.2 0.4 0 5.3 0.4 0 5.4 0.4 0 
5.5 0.4 0 5.6 0.4 0 5.7 0.4 0 
5.8 0.4 0 5.9 0.4 0 6 0.4 0 
6.1 0.4 0 6.2 0.4 0 6.3 0.4 0 
6.4 0.4 0 6.5 0.4 0 6.6 0.4 0 
6.7 0.4 0 6.8 0.4 0 6.9 0.4 0 
7 0.4 0 7.1 0.4 0 7.2 0.4 0 
7.3 0.4 0 7.4 0.4 0 7.5 0.4 0 
7.6 0.4 0 7.7 0.4 0 7.8 0.4 0 
7.9 0.4 0 8 0.4 0 8.1 0.4 0 
8.2 0.4 0 8.3 0.4 0 8.4 0.4 0 
8.5 0.4 0 8.6 0.4 0 8.7 0.4 0 
8.8 0.4 0 8.9 0.4 0 9 0.4 0 
9.1 0.4 0 9.2 0.4 0 9.3 0.4 0 
9.4 0.4 0 9.5 0.4 0 9.6 0.4 0 
9.7 0.4 0 9.8 0.4 0 9.9 0.4 0 
10 0.4 0 0 0.5 0 0.1 0.5 0 
0.2 0.5 0 0.3 0.5 0 0.4 0.5 0 
0.5 0.5 0 0.6 0.5 0 0.7 0.5 0 
0.8 0.5 0 0.9 0.5 0 1 0.5 0 
1.1 0.5 0 1.2 0.5 0 1.3 0.5 0 
1.4 0.5 0 1.5 0.5 0 1.6 0.5 0 
1.7 0.5 0 1.8 0.5 0 1.9 0.5 0 
2 0.5 0 2.1 0.5 0 2.2 0.5 0 
2.3 0.5 0 2.4 0.5 0 2.5 0.5 0 
2.6 0.5 0 2.7 0.5 0 2.8 0.5 0 
2.9 0.5 0 3 0.5 0 3.1 0.5 0 
3.2 0.5 0 3.3 0.5 0 3.4 0.5 0 
3.5 0.5 0 3.6 0.5 0 3.7 0.5 0 
3.8 0.5 0 3.9 0.5 0 4 0.5 0 
4.1 0.5 0 4.2 0.5 0 4.3 0.5 0 
4.4 0.5 0 4.5 0.5 0 4.6 0.5 0 
4.7 0.5 0 4.8 0.5 0 4.9 0.5 0 
5 0.5 0 5.1 0.5 0 5.2 0.5 0 
5.3 0.5 0 5.4 0.5 0 5.5 0.5 0 
5.6 0.5 0 5.7 0.5 0 5.8 0.5 0 
5.9 0.5 0 6 0.5 0 6.1 0.5 0 
6.2 0.5 0 6.3 0.5 0 6.4 0.5 0 
6.5 0.5 0 6.6 0.5 0 6.7 0.5 0 
6.8 0.5 0 6.9 0.5 0 7 0.5 0 
7.1 0.5 0 7.2 0.5 0 7.3 0.5 0 
7.4 0.5 0 7.5 0.5 0 7.6 0.5 0 
7.7 0.5 0 7.8 0.5 0 7.9 0.5 0 
8 0.5 0 8.1 0.5 0 8.2 0.5 0 
8.3 0.5 0 8.4 0.5 0 8.5 0.5 0 
8.6 0.5 0 8.7 0.5 0 8.8 0.5 0 
8.9 0.5 0 9 0.5 0 9.1 0.5 0 
9.2 0.5 0 9.3 0.5 0 9.4 0.5 0 
9.5 0.5 0 9.6 0.5 0 9.7 0.5 0 
9.8 0.5 0 9.9 0.5 0 10 0.5 0 
0 0.6 0 0.1 0.6 0 0.2 0.6 0 
0.3 0.6 0 0.4 0.6 0 0.5 0.6 0 
0.6 0.6 0 0.7 0.6 0 0.8 0.6 0 
0.9 0.6 0 1 0.6 0 1.1 0.6 0 
1.2 0.6 0 1.3 0.6 0 1.4 0.6 0 
1.5 0.6 0 1.6 0.6 0 1.7 0.6 0 
1.8 0.6 0 1.9 0.6 0 2 0.6 0 
2.1 0.6 0 2.2 0.6 0 2.3 0.6 0 
2.4 0.6 0 2.5 0.6 0 2.6 0.6 0 
2.7 0.6 0 2.8 0.6 0 2.9 0.6 0 
3 0.6 0 3.1 0.6 0 3.2 0.6 0 
3.3 0.6 0 3.4 0.6 0 3.5 0.6 0 
3.6 0.6 0 3.7 0.6 0 3.8 0.6 0 
3.9 0.6 0 4 0.6 0 4.1 0.6 0 
4.2 0.6 0 4.3 0.6 0 4.4 0.6 0 
4.5 0.6 0 4.6 0.6 0 4.7 0.6 0 
4.8 0.6 0 4.9 0.6 0 5 0.6 0 
5.1 0.6 0 5.2 0.6 0 5.3 0.6 0 
5.4 0.6 0 5.5 0.6 0 5.6 0.6 0 
5.7 0.6 0 5.8 0.6 0 5.9 0.6 0 
6 0.6 0 6.1 0.6 0 6.2 0.6 0 
6.3 0.6 0 6.4 0.6 0 6.5 0.6 0 
6.6 0.6 0 6.7 0.6 0 6.8 0.6 0 
6.9 0.6 0 7 0.6 0 7.1 0.6 0 
7.2 0.6 0 7.3 0.6 0 7.4 0.6 0 
7.5 0.6 0 7.6 0.6 0 7.7 0.6 0 
7.8 0.6 0 7.9 0.6 0 8 0.6 0 
8.1 0.6 0 8.2 0.6 0 8.3 0.6 0 
8.4 0.6 0 8.5 0.6 0 8.6 0.6 0 
8.7 0.6 0 8.8 0.6 0 8.9 0.6 0 
9 0.6 0 9.1 0.6 0 9.2 0.6 0 
9.3 0.6 0 9.4 0.6 0 9.5 0.6 0 
9.6 0.6 0 9.7 0.6 0 9.8 0.6 0 
9.9 0.6 0 10 0.6 0 0 0.7 0 
0.1 0.7 0 0.2 0.7 0 0.3 0.7 0 
0.4 0.7 0 0.5 0.7 0 0.6 0.7 0 
0.7 0.7 0 0.8 0.7 0 0.9 0.7 0 
1 0.7 0 1.1 0.7 0 1.2 0.7 0 
1.3 0.7 0 1.4 0.7 0 1.5 0.7 0 
1.6 0.7 0 1.7 0.7 0 1.8 0.7 0 
1.9 0.7 0 2 0.7 0 2.1 0.7 0 
2.2 0.7 0 2.3 0.7 0 2.4 0.7 0 
2.5 0.7 0 2.6 0.7 0 2.7 0.7 0 
2.8 0.7 0 2.9 0.7 0 3 0.7 0 
3.1 0.7 0 3.2 0.7 0 3.3 0.7 0 
3.4 0.7 0 3.5 0.7 0 3.6 0.7 0 
3.7 0.7 0 3.8 0.7 0 3.9 0.7 0 
4 0.7 0 4.1 0.7 0 4.2 0.7 0 
4.3 0.7 0 4.4 0.7 0 4.5 0.7 0 
4.6 0.7 0 4.7 0.7 0 4.8 0.7 0 
4.9 0.7 0 5 0.7 0 5.1 0.7 0 
5.2 0.7 0 5.3 0.7 0 5.4 0.7 0 
5.5 0.7 0 5.6 0.7 0 5.7 0.7 0 
5.8 0.7 0 5.9 0.7 0 6 0.7 0 
6.1 0.7 0 6.2 0.7 0 6.3 0.7 0 
6.4 0.7 0 6.5 0.7 0 6.6 0.7 0 
6.7 0.7 0 6.8 0.7 0 6.9 0.7 0 
7 0.7 0 7.1 0.7 0 7.2 0.7 0 
7.3 0.7 0 7.4 0.7 0 7.5 0.7 0 
7.6 0.7 0 7.7 0.7 0 7.8 0.7 0 
7.9 0.7 0 8 0.7 0 8.1 0.7 0 
8.2 0.7 0 8.3 0.7 0 8.4 0.7 0 
8.5 0.7 0 8.6 0.7 0 8.7 0.7 0 
8.8 0.7 0 8.9 0.7 0 9 0.7 0 
9.1 0.7 0 9.2 0.7 0 9.3 0.7 0 
9.4 0.7 0 9.5 0.7 0 9.6 0.7 0 
9.7 0.7 0 9.8 0.7 0 9.9 0.7 0 
10 0.7 0 0 0.8 0 0.1 0.8 0 
0.2 0.8 0 0.3 0.8 0 0.4 0.8 0 
0.5 0.8 0 0.6 0.8 0 0.7 0.8 0 
0.8 0.8 0 0.9 0.8 0 1 0.8 0 
1.1 0.8 0 1.2 0.8 0 1.3 0.8 0 
1.4 0.8 0 1.5 0.8 0 1.6 0.8 0 
1.7 0.8 0 1.8 0.8 0 1.9 0.8 0 
2 0.8 0 2.1 0.8 0 2.2 0.8 0 
2.3 0.8 0 2.4 0.8 0 2.5 0.8 0 
2.6 0.8 0 2.7 0.8 0 2.8 0.8 0 
2.9 0.8 0 3 0.8 0 3.1 0.8 0 
3.2 0.8 0 3.3 0.8 0 3.4 0.8 0 
3.5 0.8 0 3.6 0.8 0 3.7 0.8 0 
3.8 0.8 0 3.9 0.8 0 4 0.8 0 
4.1 0.8 0 4.2 0.8 0 4.3 0.8 0 
4.4 0.8 0 4.5 0.8 0 4.6 0.8 0 
4.7 0.8 0 4.8 0.8 0 4.9 0.8 0 
5 0.8 0 5.1 0.8 0 5.2 0.8 0 
5.3 0.8 0 5.4 0.8 0 5.5 0.8 0 
5.6 0.8 0 5.7 0.8 0 5.8 0.8 0 
5.9 0.8 0 6 0.8 0 6.1 0.8 0 
6.2 0.8 0 6.3 0.8 0 6.4 0.8 0 
6.5 0.8 0 6.6 0.8 0 6.7 0.8 0 
6.8 0.8 0 6.9 0.8 0 7 0.8 0 
7.1 0.8 0 7.2 0.8 0 7.3 0.8 0 
7.4 0.8 0 7.5 0.8 0 7.6 0.8 0 
7.7 0.8 0 7.8 0.8 0 7.9 0.8 0 
8 0.8 0 8.1 0.8 0 8.2 0.8 0 
8.3 0.8 0 8.4 0.8 0 8.5 0.8 0 
8.6 0.8 0 8.7 0.8 0 8.8 0.8 0 
8.9 0.8 0 9 0.8 0 9.1 0.8 0 
9.2 0.8 0 9.3 0.8 0 9.4 0.8 0 
9.5 0.8 0 9.6 0.8 0 9.7 0.8 0 
9.8 0.8 0 9.9 0.8 0 10 0.8 0 
0 0.9 0 0.1 0.9 0 0.2 0.9 0 
0.3 0.9 0 0.4 0.9 0 0.5 0.9 0 
0.6 0.9 0 0.7 0.9 0 0.8 0.9 0 
0.9 0.9 0 1 0.9 0 1.1 0.9 0 
1.2 0.9 0 1.3 0.9 0 1.4 0.9 0 
1.5 0.9 0 1.6 0.9 0 1.7 0.9 0 
1.8 0.9 0 1.9 0.9 0 2 0.9 0 
2.1 0.9 0 2.2 0.9 0 2.3 0.9 0 
2.4 0.9 0 2.5 0.9 0 2.6 0.9 0 
2.7 0.9 0 2.8 0.9 0 2.9 0.9 0 
3 0.9 0 3.1 0.9 0 3.2 0.9 0 
3.3 0.9 0 3.4 0.9 0 3.5 0.9 0 
3.6 0.9 0 3.7 0.9 0 3.8 0.9 0 
3.9 0.9 0 4 0.9 0 4.1 0.9 0 
4.2 0.9 0 4.3 0.9 0 4.4 0.9 0 
4.5 0.9 0 4.6 0.9 0 4.7 0.9 0 
4.8 0.9 0 4.9 0.9 0 5 0.9 0 
5.1 0.9 0 5.2 0.9 0 5.3 0.9 0 
5.4 0.9 0 5.5 0.9 0 5.6 0.9 0 
5.7 0.9 0 5.8 0.9 0 5.9 0.9 0 
6 0.9 0 6.1 0.9 0 6.2 0.9 0 
6.3 0.9 0 6.4 0.9 0 6.5 0.9 0 
6.6 0.9 0 6.7 0.9 0 6.8 0.9 0 
6.9 0.9 0 7 0.9 0 7.1 0.9 0 
7.2 0.9 0 7.3 0.9 0 7.4 0.9 0 
7.5 0.9 0 7.6 0.9 0 7.7 0.9 0 
7.8 0.9 0 7.9 0.9 0 8 0.9 0 
8.1 0.9 0 8.2 0.9 0 8.3 0.9 0 
8.4 0.9 0 8.5 0.9 0 8.6 0.9 0 
[...]
CELL_DATA 2000
FIELD FieldData 2
pressure 1 2000 double
2.9228625092 3.0109370635 2.6923798625 2.5239326531 2.4258663457 2.3616385841 2.3144294045 2.2763308958 2.2434292941 
2.2136415772 2.1857794408 2.1591344217 2.1332750724 2.1079333771 2.0829373798 2.0581730276 2.0335636532 2.0090582496 
1.9846237009 1.9602391331 1.9358915728 1.9115725033 1.8872755338 1.8629955404 1.8387288706 1.814473492 1.7902283712 
1.7659924895 1.7417643966 1.7175425742 1.6933260008 1.6691142321 1.6449069818 1.6207037255 1.5965037089 1.5723062324 
1.5481108496 1.5239173102 1.4997253862 1.4755347834 1.4513451854 1.4271563337 1.4029680503 1.3787802044 1.3545926759 
1.330405349 1.3062181245 1.2820309272 1.2578437024 1.233656407 1.2094690067 1.1852814762 1.1610937992 1.1369059663 
1.1127179719 1.0885298129 1.0643414921 1.0401530179 1.0159644001 0.99177564737 0.9675867682 0.94339777107 0.91920866511 
0.89501945989 0.87083016499 0.84664078978 0.82245134335 0.79826183443 0.7740722713 0.74988266161 0.72569301239 0.70150333 
0.67731362021 0.65312388805 0.62893413789 0.60474437354 0.58055459835 0.55636481532 0.53217502693 0.50798523517 0.4837954416 
0.45960564746 0.43541585386 0.41122606169 0.3870362716 0.36284648403 0.33865669924 0.31446691737 0.29027713853 0.26608736274 
0.24189758998 0.21770782016 0.19351805312 0.16932828869 0.14513852665 0.1209487668 0.09675900893 0.072569252856 0.048379498525 
0.024189746286 2.9228625092 3.0109370635 2.6923798625 2.5239326531 2.4258663457 2.3616385841 2.3144294045 2.2763308958 
2.2434292941 2.2136415772 2.1857794408 2.1591344217 2.1332750724 2.1079333771 2.0829373798 2.0581730276 2.0335636532 
2.0090582496 1.9846237009 1.9602391331 1.9358915728 1.9115725033 1.8872755338 1.8629955404 1.8387288706 1.814473492 
1.7902283712 1.7659924895 1.7417643966 1.7175425742 1.6933260008 1.6691142321 1.6449069818 1.6207037255 1.5965037089 
1.5723062324 1.5481108496 1.5239173102 1.4997253862 1.4755347834 1.4513451854 1.4271563337 1.4029680503 1.3787802044 
1.3545926759 1.330405349 1.3062181245 1.2820309272 1.2578437024 1.233656407 1.2094690067 1.1852814762 1.1610937992 
1.1369059663 1.1127179719 1.0885298129 1.0643414921 1.0401530179 1.0159644001 0.99177564737 0.9675867682 0.94339777107 
0.91920866511 0.89501945989 0.87083016499 0.84664078978 0.82245134335 0.79826183443 0.7740722713 0.74988266161 0.72569301239 
0.70150333 0.67731362021 0.65312388805 0.62893413789 0.60474437354 0.58055459835 0.55636481532 0.53217502693 0.50798523517 
0.4837954416 0.45960564746 0.43541585386 0.41122606169 0.3870362716 0.36284648403 0.33865669924 0.31446691737 0.29027713853 
0.26608736274 0.24189758998 0.21770782016 0.19351805312 0.16932828869 0.14513852665 0.1209487668 0.09675900893 0.072569252856 
0.048379498525 0.024189746286 2.4872612567 2.9118497353 2.7021832893 2.5567027062 2.4576648603 2.3872704233 2.3339957196 
2.2910595574 2.2545091231 2.2219953683 2.1920913723 2.163914413 2.1369058058 2.1107002724 2.0850514067 2.0597904396 
2.0348018165 2.0100067396 1.985351525 1.9607994407 1.9363248152 1.9119088469 1.887537245 1.8631994581 1.8388883453 
1.8145992334 1.7903285051 1.7660727063 1.7418286705 1.7175940833 1.693367598 1.6691483271 1.6449352783 1.6207272615 
1.5965231911 1.5723223363 1.5481242651 1.523928617 1.4997349694 1.4755428785 1.4513519802 1.4271620224 1.4029728213 
1.37878421 1.3545960265 1.3304081303 1.3062204139 1.2820327972 1.2578452163 1.2336576176 1.2094699588 1.1852822097 
1.1610943496 1.1369063638 1.1127182422 1.0885299793 1.064341571 1.040153026 1.0159643546 0.99177556154 0.9675866525 
0.94339763435 0.91920851491 0.89501930242 0.87083000519 0.8466406315 0.8224511896 0.79826168752 0.77407213288 0.74988253278 
0.72569289379 0.70150322194 0.67731352267 0.65312380073 0.62893406033 0.60474430521 0.58055453876 0.55636476388 0.53217498296 
0.50798519788 0.48379541024 0.45960562139 0.43541583252 0.41122604453 0.38703625807 0.3628464736 0.33865669143 0.3144669118 
0.29027713482 0.26608736048 0.24189758894 0.21770782009 0.19351805383 0.16932829 0.14513852842 0.12094876891 0.096759011284 
0.072569255349 0.048379500969 0.024189748015 2.2544993036 2.779168554 2.6586492663 2.5516899692 2.4663310765 2.3993353462 
2.3456614863 2.3011409818 2.2628043139 2.2286478687 2.1973499631 2.1680390386 2.140128221 2.1132112015 2.0870025628 
2.0613021787 2.0359702734 2.0109087315 1.9860479501 1.961337923 1.9367419136 1.912232194 1.8877878658 1.8633939007 
1.8390399419 1.8147184021 1.7904228192 1.7661474615 1.7418878748 1.7176411938 1.6934056056 1.6691794802 1.6449610029 
1.6207484574 1.596540619 1.5723367711 1.5481363986 1.5239389325 1.4997437505 1.4755503199 1.4513582746 1.427167367 
1.4029773823 1.3787881051 1.3545993395 1.3304109334 1.3062227762 1.2820347812 1.257846874 1.2336589919 1.2094710877 
1.1852831277 1.1610950871 1.1369069467 1.1127186927 1.0885303182 1.0643418214 1.0401531942 1.0159644563 0.99177560979 
0.96758665811 0.94339760661 0.91920846177 0.89501923052 0.87082992 0.84664053759 0.82245109081 0.79826158701 0.77407203313 
0.74988243571 0.72569280086 0.7015031342 0.67731344078 0.65312372507 0.62893399108 0.60474424247 0.58055448249 0.55636471389 
0.53217493887 0.50798515925 0.48379537665 0.45960559249 0.43541580793 0.41122602384 0.38703624085 0.36284645942 0.33865667993 
0.31446690265 0.29027712775 0.26608735527 0.24189758509 0.21770781742 0.19351805216 0.16932828916 0.14513852828 0.12094876932 
0.096759012089 0.072569256407 0.048379502061 0.024189748742 2.1229047314 2.6723345635 2.6045224956 2.5305841813 2.4623270471 
2.4030192769 2.35217881 2.3081778421 2.2693443116 2.2343174574 2.2020841041 2.1719066814 2.1432433174 2.115693139 
2.0889624009 2.0628387676 2.0371688373 2.0118404755 1.9867708119 1.9618980557 1.9371754252 1.9125671239 1.8880462869 
1.8635935573 1.8391949692 1.814839491 1.7905176446 1.7662216607 1.7419460435 1.717687278 1.6934427233 1.6692097452 
1.6449857405 1.6207686548 1.596557215 1.5723506322 1.5481481708 1.5239490031 1.4997523549 1.4755576653 1.4513645769 
1.4271728178 1.4029821181 1.3787922155 1.354602895 1.330414002 1.3062254221 1.2820370584 1.2578488257 1.2336606557 
1.2094724981 1.1852843163 1.1610960812 1.13690777 1.1127193668 1.0885308636 1.0643422568 1.0401535435 1.015964719 
0.9917758011 0.96758678996 0.94339768931 0.91920850425 0.89501924042 0.87082990393 0.84664050136 0.82245103948 0.79826152489 
0.77407196381 0.74988236214 0.72569272546 0.7015030589 0.67731336706 0.65312365404 0.62893392362 0.60474417927 0.58055442398 
0.55636466023 0.53217489004 0.50798511517 0.4837953372 0.45960555753 0.43541577724 0.41122599711 0.38703621775 0.36284643963 
0.33865666315 0.31446688861 0.29027711617 0.2660873459 0.24189757772 0.21770781158 0.19351804768 0.16932828588 0.145138526 
0.12094876787 0.096759011316 0.072569256159 0.048379502173 0.024189749041 2.0436733223 2.5953588475 2.5563597378 2.5057296664 
2.4527427952 2.4021425819 2.3556516739 2.31341248 2.2749324645 2.2395680256 2.2067102992 2.1758312183 2.146488877 
2.1183271672 2.091070019 2.0645077215 2.0384805042 2.0128655681 1.9875684589 1.9625164876 1.9376532849 1.9129352102 
1.8883293643 1.8638115629 1.8393634749 1.814970077 1.7906188012 1.7662999992 1.7420070844 1.7177355147 1.6934814112 
1.6692410025 1.6450110249 1.6207892153 1.5965742023 1.572364962 1.5481604281 1.5239595263 1.4997613962 1.4755654767 
1.4513713938 1.4271788147 1.4029874044 1.3787968666 1.3546069803 1.3304175899 1.3062285722 1.2820398178 1.2578512331 
1.2336627467 1.2094743065 1.1852858726 1.1610974119 1.1369088989 1.1127203171 1.0885316573 1.0643429146 1.0401540863 
1.0159651572 0.99177614665 0.96758705535 0.94339788619 0.91920864303 0.89501933038 0.87082995343 0.84664051795 0.82245102985 
0.79826149481 0.77407191822 0.74988230526 0.72569266085 0.7015029895 0.67731329525 0.65312358178 0.62893385252 0.60474411057 
0.58055435858 0.55636459869 0.53217483272 0.50798506231 0.48379528897 0.45960551395 0.4354157382 0.4112259624 0.38703618713 
0.36284641286 0.33865663997 0.31446686874 0.29027709931 0.26608733177 0.24189756616 0.21770780222 0.19351804017 0.16932827999 
0.14513852151 0.12094876459 0.096759009061 0.072569254776 0.048379501528 0.024189749059 1.9939572539 2.5418968372 2.518481379 
2.4831037934 2.4419500773 2.399246658 2.3573814985 2.3174593149 2.279843587 2.2445165222 2.2112726892 2.1798228207 
2.1498604664 2.1211045679 2.0933170763 2.0663021721 2.0398995167 2.0139789597 1.988436493 1.9631896086 1.9381728029 
1.9133346802 1.8886360253 1.8640471902 1.839544821 1.8151096242 1.7907260356 1.766382587 1.7420713236 1.7177862154 
1.6935218705 1.6692734294 1.6450371332 1.6208105297 1.5965919976 1.5723801193 1.5481734654 1.5239707783 1.4997711638 
1.475574049 1.4513789994 1.427185598 1.4029934531 1.3788022521 1.3546117748 1.3304218596 1.3062323697 1.2820431841 
1.2578542046 1.2336653589 1.2094765932 1.1852878638 1.1610991347 1.1369103793 1.1127215807 1.0885327284 1.0643438151 
1.0401548357 1.0159657807 0.99177665195 0.96758745692 0.94339819751 0.9192088765 0.8950194974 0.87083006452 0.84664058272 
0.82245105683 0.79826149146 0.774071891 0.74988225978 0.7256926019 0.70150292112 0.6773132208 0.65312350407 0.62893377385 
0.60474403278 0.58055428302 0.55636452635 0.53217476433 0.50798499844 0.48379522998 0.45960546001 0.4354156893 0.41122591844 
0.38703614793 0.36284637822 0.33865660964 0.31446684242 0.2902770767 0.26608731254 0.24189754999 0.21770778905 0.19351802944 
0.16932827139 0.14513851479 0.12094875949 0.096759005391 0.072569252354 0.04837950022 0.024189748796 1.9623589489 2.505824735 
2.4908722337 2.4650967271 2.432371251 2.3959497993 2.3581756122 2.3205650952 2.2840067196 2.2489398331 2.2154933423 
2.1836022718 2.1531048824 2.123808988 2.0955248683 2.0680770652 2.0413093104 2.0150878293 1.9893017227 1.9638602591 
1.9386897278 1.9137314869 1.8889400834 1.8642801877 1.839723309 1.8152461071 1.7908303464 1.7664627684 1.7421337476 
1.7178354734 1.6935610498 1.6693047516 1.6450624676 1.6208314855 1.5966097724 1.572395449 1.5481867829 1.5239824184 
1.4997814484 1.4755832525 1.4513873031 1.4271931024 1.4030002252 1.3788083581 1.3546172807 1.3304268203 1.3062368261 
1.2820471701 1.2578577539 1.2336685058 1.2094793698 1.1852902993 1.161101257 1.1369122165 1.1127231608 1.0885340778 
1.0643449578 1.0401557935 1.0159665805 0.99177730923 0.967587987 0.94339861564 0.91920919724 0.89501973448 0.87083023076 
0.84664068977 0.82245111507 0.79826150999 0.77407187783 0.74988222188 0.72569254529 0.70150285089 0.67731314125 0.6531234188 
0.62893368584 0.60474394437 0.58055419603 0.55636444218 0.53217468406 0.5079849229 0.48379515971 0.45960539531 0.43541563025 
0.41122586501 0.38703610002 0.36284633563 0.33865657212 0.31446680966 0.29027704836 0.26608728827 0.24189752945 0.21770777192 
0.19351801549 0.16932826013 0.14513850588 0.12094875266 0.09675900039 0.072569248971 0.048379498293 0.024189748222 1.9429052678 
2.4828286523 2.4724325014 2.4524311452 2.4252251705 2.3932334048 2.3585537089 2.3228302494 2.2872303114 2.2524799133 
2.2189445413 2.1867374867 2.1558234638 2.1260919752 2.0973986378 2.0695883066 2.0425110395 2.0160324654 1.9900373527 
1.9644286762 1.9391260987 1.9140649723 1.8891943983 1.8644739193 1.8398705799 1.815357794 1.7909152297 1.7665279719 
1.7421846359 1.7178757037 1.6935931034 1.6693305747 1.6450837545 1.6208495842 1.5966255531 1.5724093848 1.5481991721 
1.5239935382 1.4997915592 1.4755925385 1.4513958566 1.4272009646 1.4030074327 1.3788149562 1.3546233123 1.3304323166 
1.3062418103 1.2820516659 1.2578617887 1.2336721083 1.2094825676 1.1852931192 1.161103727 1.1369143658 1.1127250184 
1.088535671 1.0643463123 1.0401569341 1.0159675321 0.99177809553 0.96758862497 0.9433991226 0.91920958996 0.89502002891 
0.87083044172 0.8466408307 0.82245119788 0.79826154524 0.77407187484 0.74988218882 0.72569248919 0.70150277774 0.67731305613 
0.65312332598 0.62893358883 0.60474384598 0.58055409847 0.5563643472 0.53217459304 0.50798483685 0.48379507933 0.45960532096 
0.43541556214 0.41122580318 0.38703604438 0.36284628602 0.33865652827 0.31446677124 0.29027701499 0.26608725959 0.24189750506 
0.21770775142 0.19351799864 0.16932824648 0.14513849505 0.12094874431 0.096758994228 0.072569244751 0.048379495815 0.024189747343 
1.9324151764 2.4702122599 2.4620986283 2.4451880033 2.4210735001 2.3916572044 2.3588417661 2.324298352 2.2893225386 
2.2547901803 2.2212042534 2.1887921868 2.1576042006 2.1275850761 2.09862031 2.070568345 2.0432843542 2.016634442 
1.9905007238 1.9647818623 1.9393930516 1.9142655841 1.8893446694 1.8645861175 1.8399539502 1.8154196163 1.7909614977 
1.766563393 1.7422124564 1.7178979407 1.6936111686 1.6693457066 1.6450970196 1.6208616978 1.5966368401 1.5724199506 
1.548209098 1.5240029404 1.4998005328 1.4756011083 1.4514039935 1.4272086342 1.4030146217 1.3788216662 1.3546295441 
1.3304380674 1.3062470798 1.2820564622 1.2578661272 1.2336760076 1.2094860477 1.1852962028 1.1611064399 1.1369167359 
1.1127270737 1.0885374386 1.0643478187 1.0401582055 1.0159685942 0.99177897265 0.96758933754 0.94339969033 0.91921003162 
0.89502036217 0.87083068283 0.84664099426 0.82245129692 0.79826159132 0.77407187821 0.74988215845 0.72569243282 0.70150270197 
0.67731296656 0.65312322734 0.62893348501 0.60474374012 0.58055399306 0.55636424424 0.5321744941 0.50798474308 0.48379499149 
0.45960523954 0.43541548738 0.41122573518 0.3870359831 0.36284623126 0.33865647976 0.31446672864 0.29027697792 0.26608722765 
0.24189747783 0.21770772848 0.1935179796 0.16932823104 0.14513848275 0.1209487348 0.096758987173 0.072569239881 0.048379492901 
0.024189746203 1.9292998538 2.4665041603 2.4591474891 2.4432320487 2.4200746359 2.3914205275 2.3591320068 2.3249041525 
2.2900756364 2.2555667726 2.2219239622 2.1894140492 2.1581165487 2.1279925399 2.0989340928 2.070801937 2.043452143 
2.0167504432 1.9905772362 1.9648290117 1.9394191531 1.9142773981 1.889347263 1.8645829208 1.8399473444 1.8154116079 
1.7909537967 1.766557102 1.742207922 1.7178950139 1.6936097901 1.6693459896 1.6450990027 1.6208652018 1.596641522 
1.5724254741 1.5482152375 1.5240095474 1.4998074587 1.4756081806 1.4514110471 1.4272155443 1.403021305 1.378828061 
1.354635598 1.3304437375 1.3062523385 1.2820612973 1.2578705372 1.2336799973 1.2094896275 1.1852993892 1.1611092543 
1.1369192028 1.1127292182 1.0885392864 1.0643493959 1.0401595385 1.0159697081 0.99177989006 0.96759008207 0.94340028358 
0.91921049367 0.89502071157 0.87083093643 0.84664116715 0.82245140255 0.7982616417 0.774071884 0.74988212895 0.72569237604 
0.70150262475 0.67731287475 0.65312312584 0.62893337787 0.60474363061 0.58055388384 0.55636413742 0.53217439133 0.50798464555 
0.48379490001 0.45960515464 0.43541540936 0.41122566415 0.38703591901 0.36284617395 0.33865642893 0.31446668395 0.29027693899 
0.26608719406 0.24189744915 0.21770770428 0.19351795945 0.16932821461 0.14513846964 0.12094872462 0.096758979602 0.072569234628 
0.048379489718 0.024189744895 1.9329749675 2.4709306442 2.4627713595 2.4457515581 2.4214525861 2.3918149207 2.3587982831 
2.3241056243 2.2890286313 2.2544254964 2.2207899255 2.1883504786 2.1571582925 2.1271528363 2.0982116775 2.0701881734 
2.0429357899 2.0163195537 1.9902198517 1.9645339605 1.939176709 1.9140792347 1.8891860294 1.8644521518 1.8398417426 
1.8153270699 1.7908869978 1.7665049637 1.7421675925 1.7178643065 1.6935870033 1.6693299193 1.6450884463 1.620859018 
1.5966387034 1.5724252217 1.5482169628 1.524012785 1.4998117961 1.4756132524 1.4514165586 1.4272212768 1.4030270953 
1.3788337789 1.354641137 1.3304490166 1.3062573024 1.2820659114 1.2578747815 1.2336838623 1.2094931136 1.1853025055 
1.1611120165 1.1369216302 1.1127313323 1.0885411102 1.064350954 1.0401608565 1.0159708056 0.99178079165 0.96759081235 
0.94340086465 0.91921094577 0.8950210531 0.87083118394 0.84664133542 0.82245150483 0.79826168982 0.77407188841 0.74988209875 
0.72569231906 0.70150254772 0.6773127834 0.65312302499 0.62893327149 0.60474352193 0.58055377547 0.55636403146 0.53217428938 
0.50798454878 0.48379480924 0.45960507038 0.43541533191 0.41122559363 0.38703585537 0.362846117 0.33865637841 0.31446663951 
0.29027690026 0.26608716062 0.24189742058 0.21770768015 0.19351793934 0.16932819815 0.14513845645 0.12094871436 0.09675897195 
0.072569229301 0.048379486474 0.024189743539 1.944120173 2.4843829525 2.4738685183 2.4536228463 2.4260365182 2.3935980815 
2.3585088826 2.3224756097 2.2866643504 2.2517704172 2.2181386975 2.1858795859 2.1549569787 2.1252508567 2.096603002 
2.0688485889 2.0418335147 2.0154207591 1.9894918506 1.963947306 1.9387060754 1.9137031823 1.8888864715 1.8642141244 
1.8396532679 1.8151786798 1.7907709816 1.7664148509 1.7420980255 1.7178110038 1.6935467096 1.6692998762 1.6450667315 
1.6208441251 1.5966291077 1.5724197018 1.5482145824 1.524012789 1.4998135538 1.4756162507 1.4514204016 1.4272256648 
1.4030317948 1.3788386022 1.3546459357 1.3304536797 1.3062617516 1.282070093 1.2578786595 1.2336874156 1.2094963338 
1.1853053947 1.1611145843 1.1369238906 1.1127333027 1.0885428107 1.0643524066 1.0401620834 1.015971822 0.99178162461 
0.96759148525 0.94340139856 0.91921135982 0.89502136453 0.87083140818 0.84664148627 0.82245159466 0.79826172968 0.774071888 
0.7498820665 0.72569226223 0.70150247254 0.6773126952 0.65312292824 0.62893316985 0.6047434184 0.58055367249 0.55636393094 
0.53217419279 0.50798445719 0.48379472339 0.45960499075 0.43541525878 0.41122552708 0.38703579534 0.36284606331 0.33865633079 
0.31446659764 0.29027686377 0.26608712912 0.24189739367 0.21770765743 0.19351792042 0.1693281826 0.14513844396 0.12094870463 
0.096758964688 0.072569224247 0.048379483404 0.024189742281 1.9644126626 2.5084198974 2.4931815714 2.4669298372 2.4335721106 
2.3964599733 2.3580649072 2.3199850354 2.2831126478 2.2478467008 2.21427982 2.1823316486 2.1518332914 2.1225803192 
2.0943668198 2.0670046892 2.0403307145 2.0142066053 1.9885172309 1.9631689309 1.9380870989 1.913212699 1.8884988596 
1.8639085785 1.8394132203 1.8149909268 1.7906248077 1.7663015154 1.7420105585 1.7177439944 1.6934959751 1.6692621166 
1.6450390201 1.6208238711 1.5966149238 1.5724105399 1.5482092554 1.5240103582 1.4998132689 1.4756175238 1.4514227817 
1.4272288033 1.4030354151 1.3788424838 1.3546499077 1.3304576152 1.3062655588 1.2820737064 1.2578820337 1.2336905224 
1.2094991595 1.1853079362 1.1611168461 1.1369258824 1.1127350383 1.0885443072 1.0643536837 1.0401631519 1.0159727057 
0.99178234661 0.96759206617 0.94340185716 0.91921171314 0.89502162787 0.8708315952 0.84664160923 0.82245166456 0.79826175628 
0.77407187985 0.74988203097 0.72569220568 0.70150240048 0.67731261228 0.65312283834 0.62893307616 0.60474332354 0.58055357855 
0.55636383959 0.53217410527 0.50798437441 0.48379464596 0.45960491908 0.43541519307 0.41122546739 0.38703574157 0.36284601529 
0.33865628826 0.3144665603 0.29027683127 0.26608710111 0.24189736977 0.21770763727 0.19351790365 0.16932816879 0.14513843287 
0.120948696 0.096758958265 0.0725692198 0.04837948074 0.024189741249 1.9971625588 2.5458796799 2.5218519044 2.4856005228 
2.4434609484 2.3997894784 2.3570963213 2.3165610225 2.2785483835 2.2429916513 2.209631206 2.1781434911 2.1482039991 
2.1195172033 2.0918296763 2.0649322736 2.0386555042 2.0128629431 1.9874457875 1.9623185574 1.937414811 1.9126828512 
1.8880823127 1.8635819353 1.8391578896 1.8147920636 1.7904704553 1.7661821086 1.7419186027 1.7176736839 1.6934427532 
1.6692223203 1.6450096529 1.6208026196 1.5965996867 1.5723999918 1.5482026264 1.5240066853 1.4998118067 1.4756176927 
1.4514241312 1.4272309782 1.403038132 1.3788455193 1.3546530911 1.3304608193 1.3062686903 1.282076698 1.2578848388 
1.2336931117 1.2095015173 1.1853100573 1.1611187321 1.1369275404 1.1127364793 1.0885455453 1.0643547335 1.0401640211 
1.0159734231 0.99178292978 0.96759253199 0.94340222139 0.91921199011 0.89502183047 0.870831735 0.84664169661 0.82245170879 
0.79826176553 0.77407186122 0.74988199059 0.72569214885 0.70150233174 0.67731253545 0.65312275659 0.6289329921 0.60474323926 